 Entering Link 1 = C:\G09W\l1.exe PID=     17704.
  
 Copyright (c) 1988,1990,1992,1993,1995,1998,2003,2009,2010,
            Gaussian, Inc.  All Rights Reserved.
  
 This is part of the Gaussian(R) 09 program.  It is based on
 the Gaussian(R) 03 system (copyright 2003, Gaussian, Inc.),
 the Gaussian(R) 98 system (copyright 1998, Gaussian, Inc.),
 the Gaussian(R) 94 system (copyright 1995, Gaussian, Inc.),
 the Gaussian 92(TM) system (copyright 1992, Gaussian, Inc.),
 the Gaussian 90(TM) system (copyright 1990, Gaussian, Inc.),
 the Gaussian 88(TM) system (copyright 1988, Gaussian, Inc.),
 the Gaussian 86(TM) system (copyright 1986, Carnegie Mellon
 University), and the Gaussian 82(TM) system (copyright 1983,
 Carnegie Mellon University). Gaussian is a federally registered
 trademark of Gaussian, Inc.
  
 This software contains proprietary and confidential information,
 including trade secrets, belonging to Gaussian, Inc.
  
 This software is provided under written license and may be
 used, copied, transmitted, or stored only in accord with that
 written license.
  
 The following legend is applicable only to US Government
 contracts under FAR:
  
                    RESTRICTED RIGHTS LEGEND
  
 Use, reproduction and disclosure by the US Government is
 subject to restrictions as set forth in subparagraphs (a)
 and (c) of the Commercial Computer Software - Restricted
 Rights clause in FAR 52.227-19.
  
 Gaussian, Inc.
 340 Quinnipiac St., Bldg. 40, Wallingford CT 06492
  
  
 ---------------------------------------------------------------
 Warning -- This program may not be used in any manner that
 competes with the business of Gaussian, Inc. or will provide
 assistance to any competitor of Gaussian, Inc.  The licensee
 of this program is prohibited from giving any competitor of
 Gaussian, Inc. access to this program.  By using this program,
 the user acknowledges that Gaussian, Inc. is engaged in the
 business of creating and licensing software in the field of
 computational chemistry and represents and warrants to the
 licensee that it is not a competitor of Gaussian, Inc. and that
 it will not use this program in any manner prohibited above.
 ---------------------------------------------------------------
  

 Cite this work as:
 Gaussian 09, Revision B.01,
 M. J. Frisch, G. W. Trucks, H. B. Schlegel, G. E. Scuseria, 
 M. A. Robb, J. R. Cheeseman, G. Scalmani, V. Barone, B. Mennucci, 
 G. A. Petersson, H. Nakatsuji, M. Caricato, X. Li, H. P. Hratchian, 
 A. F. Izmaylov, J. Bloino, G. Zheng, J. L. Sonnenberg, M. Hada, 
 M. Ehara, K. Toyota, R. Fukuda, J. Hasegawa, M. Ishida, T. Nakajima, 
 Y. Honda, O. Kitao, H. Nakai, T. Vreven, J. A. Montgomery, Jr., 
 J. E. Peralta, F. Ogliaro, M. Bearpark, J. J. Heyd, E. Brothers, 
 K. N. Kudin, V. N. Staroverov, T. Keith, R. Kobayashi, J. Normand, 
 K. Raghavachari, A. Rendell, J. C. Burant, S. S. Iyengar, J. Tomasi, 
 M. Cossi, N. Rega, J. M. Millam, M. Klene, J. E. Knox, J. B. Cross, 
 V. Bakken, C. Adamo, J. Jaramillo, R. Gomperts, R. E. Stratmann, 
 O. Yazyev, A. J. Austin, R. Cammi, C. Pomelli, J. W. Ochterski, 
 R. L. Martin, K. Morokuma, V. G. Zakrzewski, G. A. Voth, 
 P. Salvador, J. J. Dannenberg, S. Dapprich, A. D. Daniels, 
 O. Farkas, J. B. Foresman, J. V. Ortiz, J. Cioslowski, 
 and D. J. Fox, Gaussian, Inc., Wallingford CT, 2010.
 
 ******************************************
 Gaussian 09:  IA32W-G09RevB.01 12-Aug-2010
                11-Aug-2023 
 ******************************************
 %nprocshared=6
 Will use up to    6 processors via shared memory.
 %chk=G:\Meu Drive\POS-DOC-IME\SUBSTITUINTES-DOADORES\DPP-substituido\DPP-SUB-11\
 DPP-SUB-11-OPT-FREQ-CONT-2.chk
 ----------------------------------------------------------------------
 # opt=(calcfc,tight) freq b3lyp/6-31+g(d,p) geom=connectivity polar sc
 f=maxcycle=1500
 ----------------------------------------------------------------------
 1/7=10,10=4,14=-1,18=20,19=15,26=3,38=1,57=2/1,3;
 2/9=110,12=2,17=6,18=5,40=1/2;
 3/5=1,6=6,7=111,11=2,16=1,25=1,30=1,71=2,74=-5/1,2,3;
 4//1;
 5/5=2,7=1500,38=5,98=1/2;
 8/6=4,10=90,11=11/1;
 11/6=1,8=1,9=11,15=111,16=1/1,2,10;
 10/6=1,7=6,13=1/2;
 6/7=2,8=2,9=2,10=2,28=1/1;
 7/10=1,18=20,25=1/1,2,3,16;
 1/7=10,10=4,14=-1,18=20,19=15/3(2);
 2/9=110/2;
 99//99;
 2/9=110/2;
 3/5=1,6=6,7=111,11=2,16=1,25=1,30=1,71=1,74=-5/1,2,3;
 4/5=5,16=3/1;
 5/5=2,7=1500,38=5,98=1/2;
 7//1,2,3,16;
 1/7=10,14=-1,18=20,19=15/3(-5);
 2/9=110/2;
 6/7=2,8=2,9=2,10=2,19=2,28=1/1;
 99/9=1/99;
 -------------------
 Title Card Required
 -------------------
 Symbolic Z-matrix:
 Charge =  0 Multiplicity = 1
 N                    -1.16529  -1.75112  -0.05309 
 C                     0.25113  -1.78015  -0.05244 
 C                    -1.69413  -0.46347  -0.05146 
 C                    -0.60432   0.4002   -0.04979 
 C                     0.60665  -0.36651  -0.0503 
 C                     1.69652   0.4962   -0.04756 
 C                    -0.2477    1.8139   -0.04666 
 N                     1.16841   1.78427  -0.04501 
 O                     0.90642  -2.81948  -0.05638 
 O                    -0.90139   2.85446  -0.04754 
 H                     1.69951   2.64156  -0.04643 
 H                    -1.69636  -2.60844  -0.05805 
 C                     3.12245   0.23433  -0.04785 
 C                     3.60046  -1.09602  -0.06134 
 C                     4.07514   1.27478  -0.03483 
 C                     4.96097  -1.36104  -0.06408 
 H                     2.89247  -1.91986  -0.06744 
 C                     5.43556   1.00229  -0.03957 
 H                     3.76479   2.31512  -0.02106 
 C                     5.91857  -0.32289  -0.05586 
 H                     5.28407  -2.39617  -0.06689 
 H                     6.1327    1.83435  -0.0346 
 C                    -3.12133  -0.20676  -0.05286 
 C                    -3.60853   1.12054  -0.06212 
 C                    -4.06651  -1.25371  -0.04502 
 C                    -4.97089   1.37576  -0.06575 
 H                    -2.90702   1.94969  -0.06405 
 C                    -5.42897  -0.99084  -0.05107 
 H                    -3.74781  -2.29169  -0.03461 
 C                    -5.92123   0.33052  -0.06319 
 H                    -5.30154   2.40846  -0.06405 
 H                    -6.11996  -1.82806  -0.05092 
 C                     7.34957  -0.62115  -0.06513 
 C                     7.97704  -1.84617  -0.18396 
 S                     8.5546    0.64656   0.08855 
 C                     9.39123  -1.77308  -0.15448 
 H                     7.44099  -2.78003  -0.30238 
 C                     9.88433  -0.49105  -0.01289 
 H                     10.02491  -2.646    -0.25489 
 C                    -7.35426   0.61887  -0.07406 
 C                    -7.98983   1.83866  -0.20367 
 S                    -8.55086  -0.65513   0.09252 
 C                    -9.40352   1.75666  -0.17228 
 H                    -7.45982   2.77458  -0.33272 
 C                    -9.88805   0.47282  -0.0182 
 H                    -10.04306   2.6242   -0.28182 
 C                    -11.28273   0.01946   0.06155 
 C                    -11.62579  -1.3414   -0.05497 
 C                    -12.32552   0.94753   0.25776 
 C                    -12.95444  -1.75759   0.02134 
 H                    -10.84994  -2.08374  -0.21741 
 C                    -13.65305   0.5304    0.32725 
 H                    -12.09789   2.00201   0.37122 
 C                    -13.97712  -0.82487   0.21032 
 H                    -13.18934  -2.81407  -0.07045 
 H                    -14.43668   1.26728   0.47819 
 H                    -15.01189  -1.14874   0.26737 
 C                     11.28204  -0.04599   0.06077 
 C                     11.63178   1.31395  -0.04636 
 C                     12.32108  -0.98135   0.24161 
 C                     12.96316   1.72231   0.02408 
 H                     10.85888   2.06204  -0.19604 
 C                     13.65129  -0.57192   0.30584 
 H                     12.08877  -2.03572   0.34597 
 C                     13.98201   0.7825    0.19828 
 H                     13.20317   2.77824  -0.06034 
 H                     14.43189  -1.31435   0.44489 
 H                     15.01886   1.10025   0.25101 
 

 GradGradGradGradGradGradGradGradGradGradGradGradGradGradGradGradGradGrad
 Berny optimization.
 Initialization pass.
                           ----------------------------
                           !    Initial Parameters    !
                           ! (Angstroms and Degrees)  !
 --------------------------                            --------------------------
 ! Name  Definition              Value          Derivative Info.                !
 --------------------------------------------------------------------------------
 ! R1    R(1,2)                  1.4167         calculate D2E/DX2 analytically  !
 ! R2    R(1,3)                  1.392          calculate D2E/DX2 analytically  !
 ! R3    R(1,12)                 1.0085         calculate D2E/DX2 analytically  !
 ! R4    R(2,5)                  1.4577         calculate D2E/DX2 analytically  !
 ! R5    R(2,9)                  1.2287         calculate D2E/DX2 analytically  !
 ! R6    R(3,4)                  1.3905         calculate D2E/DX2 analytically  !
 ! R7    R(3,23)                 1.4501         calculate D2E/DX2 analytically  !
 ! R8    R(4,5)                  1.4333         calculate D2E/DX2 analytically  !
 ! R9    R(4,7)                  1.458          calculate D2E/DX2 analytically  !
 ! R10   R(5,6)                  1.39           calculate D2E/DX2 analytically  !
 ! R11   R(6,8)                  1.3921         calculate D2E/DX2 analytically  !
 ! R12   R(6,13)                 1.4498         calculate D2E/DX2 analytically  !
 ! R13   R(7,8)                  1.4164         calculate D2E/DX2 analytically  !
 ! R14   R(7,10)                 1.2288         calculate D2E/DX2 analytically  !
 ! R15   R(8,11)                 1.0085         calculate D2E/DX2 analytically  !
 ! R16   R(13,14)                1.4137         calculate D2E/DX2 analytically  !
 ! R17   R(13,15)                1.4108         calculate D2E/DX2 analytically  !
 ! R18   R(14,16)                1.3861         calculate D2E/DX2 analytically  !
 ! R19   R(14,17)                1.0863         calculate D2E/DX2 analytically  !
 ! R20   R(15,18)                1.3874         calculate D2E/DX2 analytically  !
 ! R21   R(15,19)                1.0857         calculate D2E/DX2 analytically  !
 ! R22   R(16,20)                1.4124         calculate D2E/DX2 analytically  !
 ! R23   R(16,21)                1.0844         calculate D2E/DX2 analytically  !
 ! R24   R(18,20)                1.4106         calculate D2E/DX2 analytically  !
 ! R25   R(18,22)                1.0855         calculate D2E/DX2 analytically  !
 ! R26   R(20,33)                1.4618         calculate D2E/DX2 analytically  !
 ! R27   R(23,24)                1.4139         calculate D2E/DX2 analytically  !
 ! R28   R(23,25)                1.4105         calculate D2E/DX2 analytically  !
 ! R29   R(24,26)                1.3861         calculate D2E/DX2 analytically  !
 ! R30   R(24,27)                1.0861         calculate D2E/DX2 analytically  !
 ! R31   R(25,28)                1.3876         calculate D2E/DX2 analytically  !
 ! R32   R(25,29)                1.0859         calculate D2E/DX2 analytically  !
 ! R33   R(26,30)                1.4127         calculate D2E/DX2 analytically  !
 ! R34   R(26,31)                1.0843         calculate D2E/DX2 analytically  !
 ! R35   R(28,30)                1.4101         calculate D2E/DX2 analytically  !
 ! R36   R(28,32)                1.0855         calculate D2E/DX2 analytically  !
 ! R37   R(30,40)                1.4618         calculate D2E/DX2 analytically  !
 ! R38   R(33,34)                1.3815         calculate D2E/DX2 analytically  !
 ! R39   R(33,35)                1.7558         calculate D2E/DX2 analytically  !
 ! R40   R(34,36)                1.4164         calculate D2E/DX2 analytically  !
 ! R41   R(34,37)                1.0833         calculate D2E/DX2 analytically  !
 ! R42   R(35,38)                1.7529         calculate D2E/DX2 analytically  !
 ! R43   R(36,38)                1.3809         calculate D2E/DX2 analytically  !
 ! R44   R(36,39)                1.0833         calculate D2E/DX2 analytically  !
 ! R45   R(38,58)                1.4687         calculate D2E/DX2 analytically  !
 ! R46   R(40,41)                1.3815         calculate D2E/DX2 analytically  !
 ! R47   R(40,42)                1.7558         calculate D2E/DX2 analytically  !
 ! R48   R(41,43)                1.4164         calculate D2E/DX2 analytically  !
 ! R49   R(41,44)                1.0833         calculate D2E/DX2 analytically  !
 ! R50   R(42,45)                1.7529         calculate D2E/DX2 analytically  !
 ! R51   R(43,45)                1.3809         calculate D2E/DX2 analytically  !
 ! R52   R(43,46)                1.0833         calculate D2E/DX2 analytically  !
 ! R53   R(45,47)                1.4687         calculate D2E/DX2 analytically  !
 ! R54   R(47,48)                1.4083         calculate D2E/DX2 analytically  !
 ! R55   R(47,49)                1.4097         calculate D2E/DX2 analytically  !
 ! R56   R(48,50)                1.3944         calculate D2E/DX2 analytically  !
 ! R57   R(48,51)                1.086          calculate D2E/DX2 analytically  !
 ! R58   R(49,52)                1.3933         calculate D2E/DX2 analytically  !
 ! R59   R(49,53)                1.0847         calculate D2E/DX2 analytically  !
 ! R60   R(50,54)                1.397          calculate D2E/DX2 analytically  !
 ! R61   R(50,55)                1.0862         calculate D2E/DX2 analytically  !
 ! R62   R(52,54)                1.3984         calculate D2E/DX2 analytically  !
 ! R63   R(52,56)                1.0862         calculate D2E/DX2 analytically  !
 ! R64   R(54,57)                1.0858         calculate D2E/DX2 analytically  !
 ! R65   R(58,59)                1.4083         calculate D2E/DX2 analytically  !
 ! R66   R(58,60)                1.4097         calculate D2E/DX2 analytically  !
 ! R67   R(59,61)                1.3944         calculate D2E/DX2 analytically  !
 ! R68   R(59,62)                1.086          calculate D2E/DX2 analytically  !
 ! R69   R(60,63)                1.3933         calculate D2E/DX2 analytically  !
 ! R70   R(60,64)                1.0847         calculate D2E/DX2 analytically  !
 ! R71   R(61,65)                1.397          calculate D2E/DX2 analytically  !
 ! R72   R(61,66)                1.0861         calculate D2E/DX2 analytically  !
 ! R73   R(63,65)                1.3984         calculate D2E/DX2 analytically  !
 ! R74   R(63,67)                1.0862         calculate D2E/DX2 analytically  !
 ! R75   R(65,68)                1.0857         calculate D2E/DX2 analytically  !
 ! A1    A(2,1,3)              113.5023         calculate D2E/DX2 analytically  !
 ! A2    A(2,1,12)             120.6019         calculate D2E/DX2 analytically  !
 ! A3    A(3,1,12)             125.8954         calculate D2E/DX2 analytically  !
 ! A4    A(1,2,5)              102.9424         calculate D2E/DX2 analytically  !
 ! A5    A(1,2,9)              123.4051         calculate D2E/DX2 analytically  !
 ! A6    A(5,2,9)              133.6523         calculate D2E/DX2 analytically  !
 ! A7    A(1,3,4)              106.0686         calculate D2E/DX2 analytically  !
 ! A8    A(1,3,23)             122.5246         calculate D2E/DX2 analytically  !
 ! A9    A(4,3,23)             131.4067         calculate D2E/DX2 analytically  !
 ! A10   A(3,4,5)              109.2635         calculate D2E/DX2 analytically  !
 ! A11   A(3,4,7)              142.5547         calculate D2E/DX2 analytically  !
 ! A12   A(5,4,7)              108.1818         calculate D2E/DX2 analytically  !
 ! A13   A(2,5,4)              108.2232         calculate D2E/DX2 analytically  !
 ! A14   A(2,5,6)              142.4807         calculate D2E/DX2 analytically  !
 ! A15   A(4,5,6)              109.2961         calculate D2E/DX2 analytically  !
 ! A16   A(5,6,8)              106.0708         calculate D2E/DX2 analytically  !
 ! A17   A(5,6,13)             131.2295         calculate D2E/DX2 analytically  !
 ! A18   A(8,6,13)             122.6997         calculate D2E/DX2 analytically  !
 ! A19   A(4,7,8)              102.9597         calculate D2E/DX2 analytically  !
 ! A20   A(4,7,10)             133.7043         calculate D2E/DX2 analytically  !
 ! A21   A(8,7,10)             123.3358         calculate D2E/DX2 analytically  !
 ! A22   A(6,8,7)              113.4917         calculate D2E/DX2 analytically  !
 ! A23   A(6,8,11)             125.9275         calculate D2E/DX2 analytically  !
 ! A24   A(7,8,11)             120.5802         calculate D2E/DX2 analytically  !
 ! A25   A(6,13,14)            120.1691         calculate D2E/DX2 analytically  !
 ! A26   A(6,13,15)            122.071          calculate D2E/DX2 analytically  !
 ! A27   A(14,13,15)           117.76           calculate D2E/DX2 analytically  !
 ! A28   A(13,14,16)           120.7869         calculate D2E/DX2 analytically  !
 ! A29   A(13,14,17)           119.5623         calculate D2E/DX2 analytically  !
 ! A30   A(16,14,17)           119.6507         calculate D2E/DX2 analytically  !
 ! A31   A(13,15,18)           121.1488         calculate D2E/DX2 analytically  !
 ! A32   A(13,15,19)           120.9141         calculate D2E/DX2 analytically  !
 ! A33   A(18,15,19)           117.9372         calculate D2E/DX2 analytically  !
 ! A34   A(14,16,20)           121.6642         calculate D2E/DX2 analytically  !
 ! A35   A(14,16,21)           118.3583         calculate D2E/DX2 analytically  !
 ! A36   A(20,16,21)           119.9766         calculate D2E/DX2 analytically  !
 ! A37   A(15,18,20)           121.3524         calculate D2E/DX2 analytically  !
 ! A38   A(15,18,22)           118.63           calculate D2E/DX2 analytically  !
 ! A39   A(20,18,22)           120.0171         calculate D2E/DX2 analytically  !
 ! A40   A(16,20,18)           117.2872         calculate D2E/DX2 analytically  !
 ! A41   A(16,20,33)           120.9115         calculate D2E/DX2 analytically  !
 ! A42   A(18,20,33)           121.8014         calculate D2E/DX2 analytically  !
 ! A43   A(3,23,24)            120.3522         calculate D2E/DX2 analytically  !
 ! A44   A(3,23,25)            121.878          calculate D2E/DX2 analytically  !
 ! A45   A(24,23,25)           117.7698         calculate D2E/DX2 analytically  !
 ! A46   A(23,24,26)           120.767          calculate D2E/DX2 analytically  !
 ! A47   A(23,24,27)           119.6109         calculate D2E/DX2 analytically  !
 ! A48   A(26,24,27)           119.622          calculate D2E/DX2 analytically  !
 ! A49   A(23,25,28)           121.1525         calculate D2E/DX2 analytically  !
 ! A50   A(23,25,29)           120.8575         calculate D2E/DX2 analytically  !
 ! A51   A(28,25,29)           117.99           calculate D2E/DX2 analytically  !
 ! A52   A(24,26,30)           121.6659         calculate D2E/DX2 analytically  !
 ! A53   A(24,26,31)           118.3647         calculate D2E/DX2 analytically  !
 ! A54   A(30,26,31)           119.9682         calculate D2E/DX2 analytically  !
 ! A55   A(25,28,30)           121.3536         calculate D2E/DX2 analytically  !
 ! A56   A(25,28,32)           118.6137         calculate D2E/DX2 analytically  !
 ! A57   A(30,28,32)           120.0321         calculate D2E/DX2 analytically  !
 ! A58   A(26,30,28)           117.2905         calculate D2E/DX2 analytically  !
 ! A59   A(26,30,40)           120.898          calculate D2E/DX2 analytically  !
 ! A60   A(28,30,40)           121.8114         calculate D2E/DX2 analytically  !
 ! A61   A(20,33,34)           128.7638         calculate D2E/DX2 analytically  !
 ! A62   A(20,33,35)           121.6002         calculate D2E/DX2 analytically  !
 ! A63   A(34,33,35)           109.636          calculate D2E/DX2 analytically  !
 ! A64   A(33,34,36)           113.9503         calculate D2E/DX2 analytically  !
 ! A65   A(33,34,37)           123.3039         calculate D2E/DX2 analytically  !
 ! A66   A(36,34,37)           122.7412         calculate D2E/DX2 analytically  !
 ! A67   A(33,35,38)            92.6931         calculate D2E/DX2 analytically  !
 ! A68   A(34,36,38)           113.9907         calculate D2E/DX2 analytically  !
 ! A69   A(34,36,39)           122.7182         calculate D2E/DX2 analytically  !
 ! A70   A(38,36,39)           123.2797         calculate D2E/DX2 analytically  !
 ! A71   A(35,38,36)           109.7297         calculate D2E/DX2 analytically  !
 ! A72   A(35,38,58)           121.4903         calculate D2E/DX2 analytically  !
 ! A73   A(36,38,58)           128.779          calculate D2E/DX2 analytically  !
 ! A74   A(30,40,41)           128.7451         calculate D2E/DX2 analytically  !
 ! A75   A(30,40,42)           121.6197         calculate D2E/DX2 analytically  !
 ! A76   A(41,40,42)           109.6351         calculate D2E/DX2 analytically  !
 ! A77   A(40,41,43)           113.9517         calculate D2E/DX2 analytically  !
 ! A78   A(40,41,44)           123.2925         calculate D2E/DX2 analytically  !
 ! A79   A(43,41,44)           122.7498         calculate D2E/DX2 analytically  !
 ! A80   A(40,42,45)            92.6935         calculate D2E/DX2 analytically  !
 ! A81   A(41,43,45)           113.9862         calculate D2E/DX2 analytically  !
 ! A82   A(41,43,46)           122.7249         calculate D2E/DX2 analytically  !
 ! A83   A(45,43,46)           123.2758         calculate D2E/DX2 analytically  !
 ! A84   A(42,45,43)           109.7333         calculate D2E/DX2 analytically  !
 ! A85   A(42,45,47)           121.4897         calculate D2E/DX2 analytically  !
 ! A86   A(43,45,47)           128.7757         calculate D2E/DX2 analytically  !
 ! A87   A(45,47,48)           121.6775         calculate D2E/DX2 analytically  !
 ! A88   A(45,47,49)           120.4499         calculate D2E/DX2 analytically  !
 ! A89   A(48,47,49)           117.8726         calculate D2E/DX2 analytically  !
 ! A90   A(47,48,50)           121.0657         calculate D2E/DX2 analytically  !
 ! A91   A(47,48,51)           119.9261         calculate D2E/DX2 analytically  !
 ! A92   A(50,48,51)           119.0051         calculate D2E/DX2 analytically  !
 ! A93   A(47,49,52)           120.9756         calculate D2E/DX2 analytically  !
 ! A94   A(47,49,53)           119.9557         calculate D2E/DX2 analytically  !
 ! A95   A(52,49,53)           119.063          calculate D2E/DX2 analytically  !
 ! A96   A(48,50,54)           120.3755         calculate D2E/DX2 analytically  !
 ! A97   A(48,50,55)           119.4566         calculate D2E/DX2 analytically  !
 ! A98   A(54,50,55)           120.1677         calculate D2E/DX2 analytically  !
 ! A99   A(49,52,54)           120.4509         calculate D2E/DX2 analytically  !
 ! A100  A(49,52,56)           119.4217         calculate D2E/DX2 analytically  !
 ! A101  A(54,52,56)           120.1267         calculate D2E/DX2 analytically  !
 ! A102  A(50,54,52)           119.2584         calculate D2E/DX2 analytically  !
 ! A103  A(50,54,57)           120.3731         calculate D2E/DX2 analytically  !
 ! A104  A(52,54,57)           120.3684         calculate D2E/DX2 analytically  !
 ! A105  A(38,58,59)           121.6791         calculate D2E/DX2 analytically  !
 ! A106  A(38,58,60)           120.4515         calculate D2E/DX2 analytically  !
 ! A107  A(59,58,60)           117.8694         calculate D2E/DX2 analytically  !
 ! A108  A(58,59,61)           121.0706         calculate D2E/DX2 analytically  !
 ! A109  A(58,59,62)           119.9298         calculate D2E/DX2 analytically  !
 ! A110  A(61,59,62)           118.9969         calculate D2E/DX2 analytically  !
 ! A111  A(58,60,63)           120.9734         calculate D2E/DX2 analytically  !
 ! A112  A(58,60,64)           119.964          calculate D2E/DX2 analytically  !
 ! A113  A(63,60,64)           119.0578         calculate D2E/DX2 analytically  !
 ! A114  A(59,61,65)           120.374          calculate D2E/DX2 analytically  !
 ! A115  A(59,61,66)           119.4574         calculate D2E/DX2 analytically  !
 ! A116  A(65,61,66)           120.1684         calculate D2E/DX2 analytically  !
 ! A117  A(60,63,65)           120.4566         calculate D2E/DX2 analytically  !
 ! A118  A(60,63,67)           119.4166         calculate D2E/DX2 analytically  !
 ! A119  A(65,63,67)           120.1263         calculate D2E/DX2 analytically  !
 ! A120  A(61,65,63)           119.2548         calculate D2E/DX2 analytically  !
 ! A121  A(61,65,68)           120.3746         calculate D2E/DX2 analytically  !
 ! A122  A(63,65,68)           120.3705         calculate D2E/DX2 analytically  !
 ! D1    D(3,1,2,5)             -0.004          calculate D2E/DX2 analytically  !
 ! D2    D(3,1,2,9)           -179.8473         calculate D2E/DX2 analytically  !
 ! D3    D(12,1,2,5)           179.7681         calculate D2E/DX2 analytically  !
 ! D4    D(12,1,2,9)            -0.0752         calculate D2E/DX2 analytically  !
 ! D5    D(2,1,3,4)              0.0055         calculate D2E/DX2 analytically  !
 ! D6    D(2,1,3,23)           179.9492         calculate D2E/DX2 analytically  !
 ! D7    D(12,1,3,4)          -179.7524         calculate D2E/DX2 analytically  !
 ! D8    D(12,1,3,23)            0.1913         calculate D2E/DX2 analytically  !
 ! D9    D(1,2,5,4)              0.0009         calculate D2E/DX2 analytically  !
 ! D10   D(1,2,5,6)            179.932          calculate D2E/DX2 analytically  !
 ! D11   D(9,2,5,4)            179.8201         calculate D2E/DX2 analytically  !
 ! D12   D(9,2,5,6)             -0.2488         calculate D2E/DX2 analytically  !
 ! D13   D(1,3,4,5)             -0.0046         calculate D2E/DX2 analytically  !
 ! D14   D(1,3,4,7)           -179.9371         calculate D2E/DX2 analytically  !
 ! D15   D(23,3,4,5)          -179.9413         calculate D2E/DX2 analytically  !
 ! D16   D(23,3,4,7)             0.1262         calculate D2E/DX2 analytically  !
 ! D17   D(1,3,23,24)         -179.483          calculate D2E/DX2 analytically  !
 ! D18   D(1,3,23,25)            0.5243         calculate D2E/DX2 analytically  !
 ! D19   D(4,3,23,24)            0.4449         calculate D2E/DX2 analytically  !
 ! D20   D(4,3,23,25)         -179.5478         calculate D2E/DX2 analytically  !
 ! D21   D(3,4,5,2)              0.0023         calculate D2E/DX2 analytically  !
 ! D22   D(3,4,5,6)           -179.9532         calculate D2E/DX2 analytically  !
 ! D23   D(7,4,5,2)            179.9591         calculate D2E/DX2 analytically  !
 ! D24   D(7,4,5,6)              0.0036         calculate D2E/DX2 analytically  !
 ! D25   D(3,4,7,8)            179.9117         calculate D2E/DX2 analytically  !
 ! D26   D(3,4,7,10)            -0.2222         calculate D2E/DX2 analytically  !
 ! D27   D(5,4,7,8)             -0.0213         calculate D2E/DX2 analytically  !
 ! D28   D(5,4,7,10)           179.8448         calculate D2E/DX2 analytically  !
 ! D29   D(2,5,6,8)           -179.9144         calculate D2E/DX2 analytically  !
 ! D30   D(2,5,6,13)             0.1224         calculate D2E/DX2 analytically  !
 ! D31   D(4,5,6,8)              0.0163         calculate D2E/DX2 analytically  !
 ! D32   D(4,5,6,13)          -179.9469         calculate D2E/DX2 analytically  !
 ! D33   D(5,6,8,7)             -0.0319         calculate D2E/DX2 analytically  !
 ! D34   D(5,6,8,11)          -179.737          calculate D2E/DX2 analytically  !
 ! D35   D(13,6,8,7)           179.9352         calculate D2E/DX2 analytically  !
 ! D36   D(13,6,8,11)            0.2301         calculate D2E/DX2 analytically  !
 ! D37   D(5,6,13,14)            0.4656         calculate D2E/DX2 analytically  !
 ! D38   D(5,6,13,15)         -179.5286         calculate D2E/DX2 analytically  !
 ! D39   D(8,6,13,14)         -179.4924         calculate D2E/DX2 analytically  !
 ! D40   D(8,6,13,15)            0.5134         calculate D2E/DX2 analytically  !
 ! D41   D(4,7,8,6)              0.0331         calculate D2E/DX2 analytically  !
 ! D42   D(4,7,8,11)           179.7557         calculate D2E/DX2 analytically  !
 ! D43   D(10,7,8,6)          -179.8511         calculate D2E/DX2 analytically  !
 ! D44   D(10,7,8,11)           -0.1284         calculate D2E/DX2 analytically  !
 ! D45   D(6,13,14,16)         179.8892         calculate D2E/DX2 analytically  !
 ! D46   D(6,13,14,17)          -0.2441         calculate D2E/DX2 analytically  !
 ! D47   D(15,13,14,16)         -0.1163         calculate D2E/DX2 analytically  !
 ! D48   D(15,13,14,17)        179.7504         calculate D2E/DX2 analytically  !
 ! D49   D(6,13,15,18)        -179.7963         calculate D2E/DX2 analytically  !
 ! D50   D(6,13,15,19)           0.1857         calculate D2E/DX2 analytically  !
 ! D51   D(14,13,15,18)          0.2093         calculate D2E/DX2 analytically  !
 ! D52   D(14,13,15,19)       -179.8087         calculate D2E/DX2 analytically  !
 ! D53   D(13,14,16,20)         -0.1073         calculate D2E/DX2 analytically  !
 ! D54   D(13,14,16,21)        179.539          calculate D2E/DX2 analytically  !
 ! D55   D(17,14,16,20)       -179.9739         calculate D2E/DX2 analytically  !
 ! D56   D(17,14,16,21)         -0.3276         calculate D2E/DX2 analytically  !
 ! D57   D(13,15,18,20)         -0.0808         calculate D2E/DX2 analytically  !
 ! D58   D(13,15,18,22)        179.6699         calculate D2E/DX2 analytically  !
 ! D59   D(19,15,18,20)        179.9367         calculate D2E/DX2 analytically  !
 ! D60   D(19,15,18,22)         -0.3126         calculate D2E/DX2 analytically  !
 ! D61   D(14,16,20,18)          0.2341         calculate D2E/DX2 analytically  !
 ! D62   D(14,16,20,33)       -179.716          calculate D2E/DX2 analytically  !
 ! D63   D(21,16,20,18)       -179.4066         calculate D2E/DX2 analytically  !
 ! D64   D(21,16,20,33)          0.6434         calculate D2E/DX2 analytically  !
 ! D65   D(15,18,20,16)         -0.1402         calculate D2E/DX2 analytically  !
 ! D66   D(15,18,20,33)        179.8093         calculate D2E/DX2 analytically  !
 ! D67   D(22,18,20,16)       -179.8875         calculate D2E/DX2 analytically  !
 ! D68   D(22,18,20,33)          0.062          calculate D2E/DX2 analytically  !
 ! D69   D(16,20,33,34)          5.4348         calculate D2E/DX2 analytically  !
 ! D70   D(16,20,33,35)       -174.483          calculate D2E/DX2 analytically  !
 ! D71   D(18,20,33,34)       -174.5129         calculate D2E/DX2 analytically  !
 ! D72   D(18,20,33,35)          5.5692         calculate D2E/DX2 analytically  !
 ! D73   D(3,23,24,26)         179.8932         calculate D2E/DX2 analytically  !
 ! D74   D(3,23,24,27)          -0.2514         calculate D2E/DX2 analytically  !
 ! D75   D(25,23,24,26)         -0.1138         calculate D2E/DX2 analytically  !
 ! D76   D(25,23,24,27)        179.7417         calculate D2E/DX2 analytically  !
 ! D77   D(3,23,25,28)        -179.779          calculate D2E/DX2 analytically  !
 ! D78   D(3,23,25,29)           0.1862         calculate D2E/DX2 analytically  !
 ! D79   D(24,23,25,28)          0.2281         calculate D2E/DX2 analytically  !
 ! D80   D(24,23,25,29)       -179.8067         calculate D2E/DX2 analytically  !
 ! D81   D(23,24,26,30)         -0.1328         calculate D2E/DX2 analytically  !
 ! D82   D(23,24,26,31)        179.4701         calculate D2E/DX2 analytically  !
 ! D83   D(27,24,26,30)       -179.9882         calculate D2E/DX2 analytically  !
 ! D84   D(27,24,26,31)         -0.3853         calculate D2E/DX2 analytically  !
 ! D85   D(23,25,28,30)         -0.0985         calculate D2E/DX2 analytically  !
 ! D86   D(23,25,28,32)        179.6219         calculate D2E/DX2 analytically  !
 ! D87   D(29,25,28,30)        179.9353         calculate D2E/DX2 analytically  !
 ! D88   D(29,25,28,32)         -0.3442         calculate D2E/DX2 analytically  !
 ! D89   D(24,26,30,28)          0.2604         calculate D2E/DX2 analytically  !
 ! D90   D(24,26,30,40)       -179.6816         calculate D2E/DX2 analytically  !
 ! D91   D(31,26,30,28)       -179.3363         calculate D2E/DX2 analytically  !
 ! D92   D(31,26,30,40)          0.7217         calculate D2E/DX2 analytically  !
 ! D93   D(25,28,30,26)         -0.145          calculate D2E/DX2 analytically  !
 ! D94   D(25,28,30,40)        179.7964         calculate D2E/DX2 analytically  !
 ! D95   D(32,28,30,26)       -179.8616         calculate D2E/DX2 analytically  !
 ! D96   D(32,28,30,40)          0.0799         calculate D2E/DX2 analytically  !
 ! D97   D(26,30,40,41)          6.1886         calculate D2E/DX2 analytically  !
 ! D98   D(26,30,40,42)       -173.7149         calculate D2E/DX2 analytically  !
 ! D99   D(28,30,40,41)       -173.7508         calculate D2E/DX2 analytically  !
 ! D100  D(28,30,40,42)          6.3458         calculate D2E/DX2 analytically  !
 ! D101  D(20,33,34,36)       -179.9977         calculate D2E/DX2 analytically  !
 ! D102  D(20,33,34,37)          0.7692         calculate D2E/DX2 analytically  !
 ! D103  D(35,33,34,36)         -0.072          calculate D2E/DX2 analytically  !
 ! D104  D(35,33,34,37)       -179.3051         calculate D2E/DX2 analytically  !
 ! D105  D(20,33,35,38)       -179.956          calculate D2E/DX2 analytically  !
 ! D106  D(34,33,35,38)          0.112          calculate D2E/DX2 analytically  !
 ! D107  D(33,34,36,38)         -0.023          calculate D2E/DX2 analytically  !
 ! D108  D(33,34,36,39)       -178.8366         calculate D2E/DX2 analytically  !
 ! D109  D(37,34,36,38)        179.2149         calculate D2E/DX2 analytically  !
 ! D110  D(37,34,36,39)          0.4013         calculate D2E/DX2 analytically  !
 ! D111  D(33,35,38,36)         -0.1246         calculate D2E/DX2 analytically  !
 ! D112  D(33,35,38,58)       -179.7742         calculate D2E/DX2 analytically  !
 ! D113  D(34,36,38,35)          0.1067         calculate D2E/DX2 analytically  !
 ! D114  D(34,36,38,58)        179.7234         calculate D2E/DX2 analytically  !
 ! D115  D(39,36,38,35)        178.9127         calculate D2E/DX2 analytically  !
 ! D116  D(39,36,38,58)         -1.4706         calculate D2E/DX2 analytically  !
 ! D117  D(35,38,58,59)        -12.5848         calculate D2E/DX2 analytically  !
 ! D118  D(35,38,58,60)        167.4734         calculate D2E/DX2 analytically  !
 ! D119  D(36,38,58,59)        167.8383         calculate D2E/DX2 analytically  !
 ! D120  D(36,38,58,60)        -12.1035         calculate D2E/DX2 analytically  !
 ! D121  D(30,40,41,43)       -179.9899         calculate D2E/DX2 analytically  !
 ! D122  D(30,40,41,44)          0.8755         calculate D2E/DX2 analytically  !
 ! D123  D(42,40,41,43)         -0.0772         calculate D2E/DX2 analytically  !
 ! D124  D(42,40,41,44)       -179.2118         calculate D2E/DX2 analytically  !
 ! D125  D(30,40,42,45)       -179.9682         calculate D2E/DX2 analytically  !
 ! D126  D(41,40,42,45)          0.1118         calculate D2E/DX2 analytically  !
 ! D127  D(40,41,43,45)         -0.0132         calculate D2E/DX2 analytically  !
 ! D128  D(40,41,43,46)       -178.7331         calculate D2E/DX2 analytically  !
 ! D129  D(44,41,43,45)        179.1267         calculate D2E/DX2 analytically  !
 ! D130  D(44,41,43,46)          0.4067         calculate D2E/DX2 analytically  !
 ! D131  D(40,42,45,43)         -0.119          calculate D2E/DX2 analytically  !
 ! D132  D(40,42,45,47)       -179.7453         calculate D2E/DX2 analytically  !
 ! D133  D(41,43,45,42)          0.0972         calculate D2E/DX2 analytically  !
 ! D134  D(41,43,45,47)        179.6884         calculate D2E/DX2 analytically  !
 ! D135  D(46,43,45,42)        178.8091         calculate D2E/DX2 analytically  !
 ! D136  D(46,43,45,47)         -1.5996         calculate D2E/DX2 analytically  !
 ! D137  D(42,45,47,48)        -13.6933         calculate D2E/DX2 analytically  !
 ! D138  D(42,45,47,49)        166.3751         calculate D2E/DX2 analytically  !
 ! D139  D(43,45,47,48)        166.7579         calculate D2E/DX2 analytically  !
 ! D140  D(43,45,47,49)        -13.1737         calculate D2E/DX2 analytically  !
 ! D141  D(45,47,48,50)       -179.9351         calculate D2E/DX2 analytically  !
 ! D142  D(45,47,48,51)         -0.585          calculate D2E/DX2 analytically  !
 ! D143  D(49,47,48,50)         -0.0018         calculate D2E/DX2 analytically  !
 ! D144  D(49,47,48,51)        179.3483         calculate D2E/DX2 analytically  !
 ! D145  D(45,47,49,52)        179.6212         calculate D2E/DX2 analytically  !
 ! D146  D(45,47,49,53)         -1.2538         calculate D2E/DX2 analytically  !
 ! D147  D(48,47,49,52)         -0.3129         calculate D2E/DX2 analytically  !
 ! D148  D(48,47,49,53)        178.8121         calculate D2E/DX2 analytically  !
 ! D149  D(47,48,50,54)          0.2797         calculate D2E/DX2 analytically  !
 ! D150  D(47,48,50,55)       -179.9076         calculate D2E/DX2 analytically  !
 ! D151  D(51,48,50,54)       -179.0762         calculate D2E/DX2 analytically  !
 ! D152  D(51,48,50,55)          0.7364         calculate D2E/DX2 analytically  !
 ! D153  D(47,49,52,54)          0.3528         calculate D2E/DX2 analytically  !
 ! D154  D(47,49,52,56)       -179.9424         calculate D2E/DX2 analytically  !
 ! D155  D(53,49,52,54)       -178.7798         calculate D2E/DX2 analytically  !
 ! D156  D(53,49,52,56)          0.925          calculate D2E/DX2 analytically  !
 ! D157  D(48,50,54,52)         -0.243          calculate D2E/DX2 analytically  !
 ! D158  D(48,50,54,57)        179.8533         calculate D2E/DX2 analytically  !
 ! D159  D(55,50,54,52)        179.9457         calculate D2E/DX2 analytically  !
 ! D160  D(55,50,54,57)          0.042          calculate D2E/DX2 analytically  !
 ! D161  D(49,52,54,50)         -0.0701         calculate D2E/DX2 analytically  !
 ! D162  D(49,52,54,57)        179.8336         calculate D2E/DX2 analytically  !
 ! D163  D(56,52,54,50)       -179.7729         calculate D2E/DX2 analytically  !
 ! D164  D(56,52,54,57)          0.1309         calculate D2E/DX2 analytically  !
 ! D165  D(38,58,59,61)       -179.9388         calculate D2E/DX2 analytically  !
 ! D166  D(38,58,59,62)         -0.5416         calculate D2E/DX2 analytically  !
 ! D167  D(60,58,59,61)          0.0045         calculate D2E/DX2 analytically  !
 ! D168  D(60,58,59,62)        179.4016         calculate D2E/DX2 analytically  !
 ! D169  D(38,58,60,63)        179.6538         calculate D2E/DX2 analytically  !
 ! D170  D(38,58,60,64)         -1.1474         calculate D2E/DX2 analytically  !
 ! D171  D(59,58,60,63)         -0.2901         calculate D2E/DX2 analytically  !
 ! D172  D(59,58,60,64)        178.9086         calculate D2E/DX2 analytically  !
 ! D173  D(58,59,61,65)          0.2502         calculate D2E/DX2 analytically  !
 ! D174  D(58,59,61,66)       -179.916          calculate D2E/DX2 analytically  !
 ! D175  D(62,59,61,65)       -179.1525         calculate D2E/DX2 analytically  !
 ! D176  D(62,59,61,66)          0.6814         calculate D2E/DX2 analytically  !
 ! D177  D(58,60,63,65)          0.324          calculate D2E/DX2 analytically  !
 ! D178  D(58,60,63,67)       -179.943          calculate D2E/DX2 analytically  !
 ! D179  D(64,60,63,65)       -178.8819         calculate D2E/DX2 analytically  !
 ! D180  D(64,60,63,67)          0.8511         calculate D2E/DX2 analytically  !
 ! D181  D(59,61,65,63)         -0.2194         calculate D2E/DX2 analytically  !
 ! D182  D(59,61,65,68)        179.8697         calculate D2E/DX2 analytically  !
 ! D183  D(66,61,65,63)        179.9479         calculate D2E/DX2 analytically  !
 ! D184  D(66,61,65,68)          0.037          calculate D2E/DX2 analytically  !
 ! D185  D(60,63,65,61)         -0.0648         calculate D2E/DX2 analytically  !
 ! D186  D(60,63,65,68)        179.8461         calculate D2E/DX2 analytically  !
 ! D187  D(67,63,65,61)       -179.7959         calculate D2E/DX2 analytically  !
 ! D188  D(67,63,65,68)          0.115          calculate D2E/DX2 analytically  !
 --------------------------------------------------------------------------------
 Trust Radius=3.00D-01 FncErr=1.00D-07 GrdErr=1.00D-06
 Number of steps in this run=    395 maximum allowed number of steps=    408.
 GradGradGradGradGradGradGradGradGradGradGradGradGradGradGradGradGradGrad

 Stoichiometry    C38H24N2O2S2
 Framework group  C1[X(C38H24N2O2S2)]
 Deg. of freedom   198
 Full point group                 C1      NOp   1
 Largest Abelian subgroup         C1      NOp   1
 Largest concise Abelian subgroup C1      NOp   1
                         Standard orientation:                         
 ---------------------------------------------------------------------
 Center     Atomic      Atomic             Coordinates (Angstroms)
 Number     Number       Type             X           Y           Z
 ---------------------------------------------------------------------
      1          7           0       -1.165285   -1.751117   -0.053087
      2          6           0        0.251129   -1.780149   -0.052442
      3          6           0       -1.694127   -0.463469   -0.051459
      4          6           0       -0.604315    0.400204   -0.049794
      5          6           0        0.606646   -0.366510   -0.050299
      6          6           0        1.696516    0.496198   -0.047564
      7          6           0       -0.247698    1.813898   -0.046662
      8          7           0        1.168410    1.784274   -0.045005
      9          8           0        0.906423   -2.819484   -0.056379
     10          8           0       -0.901385    2.854455   -0.047541
     11          1           0        1.699507    2.641556   -0.046426
     12          1           0       -1.696359   -2.608441   -0.058052
     13          6           0        3.122448    0.234329   -0.047852
     14          6           0        3.600463   -1.096019   -0.061335
     15          6           0        4.075142    1.274781   -0.034830
     16          6           0        4.960967   -1.361043   -0.064076
     17          1           0        2.892470   -1.919861   -0.067443
     18          6           0        5.435562    1.002292   -0.039573
     19          1           0        3.764793    2.315121   -0.021057
     20          6           0        5.918569   -0.322891   -0.055863
     21          1           0        5.284066   -2.396166   -0.066887
     22          1           0        6.132703    1.834354   -0.034596
     23          6           0       -3.121333   -0.206762   -0.052860
     24          6           0       -3.608528    1.120542   -0.062116
     25          6           0       -4.066513   -1.253714   -0.045019
     26          6           0       -4.970887    1.375764   -0.065745
     27          1           0       -2.907022    1.949689   -0.064049
     28          6           0       -5.428972   -0.990841   -0.051066
     29          1           0       -3.747813   -2.291693   -0.034610
     30          6           0       -5.921227    0.330516   -0.063187
     31          1           0       -5.301541    2.408455   -0.064052
     32          1           0       -6.119965   -1.828055   -0.050919
     33          6           0        7.349565   -0.621153   -0.065125
     34          6           0        7.977038   -1.846173   -0.183959
     35         16           0        8.554597    0.646563    0.088545
     36          6           0        9.391231   -1.773077   -0.154477
     37          1           0        7.440990   -2.780025   -0.302381
     38          6           0        9.884330   -0.491051   -0.012888
     39          1           0       10.024907   -2.646004   -0.254888
     40          6           0       -7.354258    0.618872   -0.074057
     41          6           0       -7.989825    1.838663   -0.203665
     42         16           0       -8.550860   -0.655130    0.092519
     43          6           0       -9.403517    1.756664   -0.172278
     44          1           0       -7.459823    2.774579   -0.332721
     45          6           0       -9.888050    0.472823   -0.018199
     46          1           0      -10.043062    2.624202   -0.281822
     47          6           0      -11.282732    0.019455    0.061545
     48          6           0      -11.625792   -1.341400   -0.054970
     49          6           0      -12.325517    0.947527    0.257763
     50          6           0      -12.954437   -1.757594    0.021343
     51          1           0      -10.849942   -2.083736   -0.217406
     52          6           0      -13.653053    0.530404    0.327246
     53          1           0      -12.097893    2.002011    0.371220
     54          6           0      -13.977118   -0.824872    0.210324
     55          1           0      -13.189338   -2.814070   -0.070446
     56          1           0      -14.436684    1.267281    0.478188
     57          1           0      -15.011892   -1.148744    0.267365
     58          6           0       11.282037   -0.045985    0.060768
     59          6           0       11.631780    1.313952   -0.046358
     60          6           0       12.321084   -0.981348    0.241610
     61          6           0       12.963155    1.722307    0.024083
     62          1           0       10.858881    2.062042   -0.196039
     63          6           0       13.651287   -0.571918    0.305838
     64          1           0       12.088772   -2.035719    0.345970
     65          6           0       13.982008    0.782498    0.198276
     66          1           0       13.203167    2.778236   -0.060336
     67          1           0       14.431892   -1.314354    0.444885
     68          1           0       15.018859    1.100249    0.251013
 ---------------------------------------------------------------------
 Rotational constants (GHZ):      0.4776179      0.0124472      0.0121365
 Standard basis: 6-31+G(d,p) (6D, 7F)
 There are   964 symmetry adapted basis functions of A   symmetry.
 Integral buffers will be    262144 words long.
 Raffenetti 2 integral format.
 Two-electron integral symmetry is turned on.
   964 basis functions,  1624 primitive gaussians,   964 cartesian basis functions
   157 alpha electrons      157 beta electrons
       nuclear repulsion energy      4412.8863231435 Hartrees.
 NAtoms=   68 NActive=   68 NUniq=   68 SFac= 1.00D+00 NAtFMM=   50 NAOKFM=T Big=T
 One-electron integrals computed using PRISM.
 NBasis=   964 RedAO= T  NBF=   964
 NBsUse=   949 1.00D-06 NBFU=   949
 Harris functional with IExCor=  402 diagonalized for initial guess.
 ExpMin= 4.05D-02 ExpMax= 2.19D+04 ExpMxC= 3.30D+03 IAcc=2 IRadAn=         0 AccDes= 0.00D+00
 HarFok:  IExCor=  402 AccDes= 0.00D+00 IRadAn=         0 IDoV= 1
 ScaDFX=  1.000000  1.000000  1.000000  1.000000
 FoFCou: FMM=F IPFlag=           0 FMFlag=      100000 FMFlg1=        2001
         NFxFlg=           0 DoJE=T BraDBF=F KetDBF=T FulRan=T
         Omega=  0.000000  0.000000  1.000000  0.000000  0.000000 ICntrl=     500 IOpCl=  0
         NMat0=    1 NMatS0=    1 NMatT0=    0 NMatD0=    1 NMtDS0=    0 NMtDT0=    0
         I1Cent=           4 NGrid=           0.
 Petite list used in FoFCou.
 Initial guess orbital symmetries:
       Occupied  (A) (A) (A) (A) (A) (A) (A) (A) (A) (A) (A) (A)
                 (A) (A) (A) (A) (A) (A) (A) (A) (A) (A) (A) (A)
                 (A) (A) (A) (A) (A) (A) (A) (A) (A) (A) (A) (A)
                 (A) (A) (A) (A) (A) (A) (A) (A) (A) (A) (A) (A)
                 (A) (A) (A) (A) (A) (A) (A) (A) (A) (A) (A) (A)
                 (A) (A) (A) (A) (A) (A) (A) (A) (A) (A) (A) (A)
                 (A) (A) (A) (A) (A) (A) (A) (A) (A) (A) (A) (A)
                 (A) (A) (A) (A) (A) (A) (A) (A) (A) (A) (A) (A)
                 (A) (A) (A) (A) (A) (A) (A) (A) (A) (A) (A) (A)
                 (A) (A) (A) (A) (A) (A) (A) (A) (A) (A) (A) (A)
                 (A) (A) (A) (A) (A) (A) (A) (A) (A) (A) (A) (A)
                 (A) (A) (A) (A) (A) (A) (A) (A) (A) (A) (A) (A)
                 (A) (A) (A) (A) (A) (A) (A) (A) (A) (A) (A) (A)
                 (A)
       Virtual   (A) (A) (A) (A) (A) (A) (A) (A) (A) (A) (A) (A)
                 (A) (A) (A) (A) (A) (A) (A) (A) (A) (A) (A) (A)
                 (A) (A) (A) (A) (A) (A) (A) (A) (A) (A) (A) (A)
                 (A) (A) (A) (A) (A) (A) (A) (A) (A) (A) (A) (A)
                 (A) (A) (A) (A) (A) (A) (A) (A) (A) (A) (A) (A)
                 (A) (A) (A) (A) (A) (A) (A) (A) (A) (A) (A) (A)
                 (A) (A) (A) (A) (A) (A) (A) (A) (A) (A) (A) (A)
                 (A) (A) (A) (A) (A) (A) (A) (A) (A) (A) (A) (A)
                 (A) (A) (A) (A) (A) (A) (A) (A) (A) (A) (A) (A)
                 (A) (A) (A) (A) (A) (A) (A) (A) (A) (A) (A) (A)
                 (A) (A) (A) (A) (A) (A) (A) (A) (A) (A) (A) (A)
                 (A) (A) (A) (A) (A) (A) (A) (A) (A) (A) (A) (A)
                 (A) (A) (A) (A) (A) (A) (A) (A) (A) (A) (A) (A)
                 (A) (A) (A) (A) (A) (A) (A) (A) (A) (A) (A) (A)
                 (A) (A) (A) (A) (A) (A) (A) (A) (A) (A) (A) (A)
                 (A) (A) (A) (A) (A) (A) (A) (A) (A) (A) (A) (A)
                 (A) (A) (A) (A) (A) (A) (A) (A) (A) (A) (A) (A)
                 (A) (A) (A) (A) (A) (A) (A) (A) (A) (A) (A) (A)
                 (A) (A) (A) (A) (A) (A) (A) (A) (A) (A) (A) (A)
                 (A) (A) (A) (A) (A) (A) (A) (A) (A) (A) (A) (A)
                 (A) (A) (A) (A) (A) (A) (A) (A) (A) (A) (A) (A)
                 (A) (A) (A) (A) (A) (A) (A) (A) (A) (A) (A) (A)
                 (A) (A) (A) (A) (A) (A) (A) (A) (A) (A) (A) (A)
                 (A) (A) (A) (A) (A) (A) (A) (A) (A) (A) (A) (A)
                 (A) (A) (A) (A) (A) (A) (A) (A) (A) (A) (A) (A)
                 (A) (A) (A) (A) (A) (A) (A) (A) (A) (A) (A) (A)
                 (A) (A) (A) (A) (A) (A) (A) (A) (A) (A) (A) (A)
                 (A) (A) (A) (A) (A) (A) (A) (A) (A) (A) (A) (A)
                 (A) (A) (A) (A) (A) (A) (A) (A) (A) (A) (A) (A)
                 (A) (A) (A) (A) (A) (A) (A) (A) (A) (A) (A) (A)
                 (A) (A) (A) (A) (A) (A) (A) (A) (A) (A) (A) (A)
                 (A) (A) (A) (A) (A) (A) (A) (A) (A) (A) (A) (A)
                 (A) (A) (A) (A) (A) (A) (A) (A) (A) (A) (A) (A)
                 (A) (A) (A) (A) (A) (A) (A) (A) (A) (A) (A) (A)
                 (A) (A) (A) (A) (A) (A) (A) (A) (A) (A) (A) (A)
                 (A) (A) (A) (A) (A) (A) (A) (A) (A) (A) (A) (A)
                 (A) (A) (A) (A) (A) (A) (A) (A) (A) (A) (A) (A)
                 (A) (A) (A) (A) (A) (A) (A) (A) (A) (A) (A) (A)
                 (A) (A) (A) (A) (A) (A) (A) (A) (A) (A) (A) (A)
                 (A) (A) (A) (A) (A) (A) (A) (A) (A) (A) (A) (A)
                 (A) (A) (A) (A) (A) (A) (A) (A) (A) (A) (A) (A)
                 (A) (A) (A) (A) (A) (A) (A) (A) (A) (A) (A) (A)
                 (A) (A) (A) (A) (A) (A) (A) (A) (A) (A) (A) (A)
                 (A) (A) (A) (A) (A) (A) (A) (A) (A) (A) (A) (A)
                 (A) (A) (A) (A) (A) (A) (A) (A) (A) (A) (A) (A)
                 (A) (A) (A) (A) (A) (A) (A) (A) (A) (A) (A) (A)
                 (A) (A) (A) (A) (A) (A) (A) (A) (A) (A) (A) (A)
                 (A) (A) (A) (A) (A) (A) (A) (A) (A) (A) (A) (A)
                 (A) (A) (A) (A) (A) (A) (A) (A) (A) (A) (A) (A)
                 (A) (A) (A) (A) (A) (A) (A) (A) (A) (A) (A) (A)
                 (A) (A) (A) (A) (A) (A) (A) (A) (A) (A) (A) (A)
                 (A) (A) (A) (A) (A) (A) (A) (A) (A) (A) (A) (A)
                 (A) (A) (A) (A) (A) (A) (A) (A) (A) (A) (A) (A)
                 (A) (A) (A) (A) (A) (A) (A) (A) (A) (A) (A) (A)
                 (A) (A) (A) (A) (A) (A) (A) (A) (A) (A) (A) (A)
                 (A) (A) (A) (A) (A) (A) (A) (A) (A) (A) (A) (A)
                 (A) (A) (A) (A) (A) (A) (A) (A) (A) (A) (A) (A)
                 (A) (A) (A) (A) (A) (A) (A) (A) (A) (A) (A) (A)
                 (A) (A) (A) (A) (A) (A) (A) (A) (A) (A) (A) (A)
                 (A) (A) (A) (A) (A) (A) (A) (A) (A) (A) (A) (A)
                 (A) (A) (A) (A) (A) (A) (A) (A) (A) (A) (A) (A)
                 (A) (A) (A) (A) (A) (A) (A) (A) (A) (A) (A) (A)
                 (A) (A) (A) (A) (A) (A) (A) (A) (A) (A) (A) (A)
                 (A) (A) (A) (A) (A) (A) (A) (A) (A) (A) (A) (A)
                 (A) (A) (A) (A) (A) (A) (A) (A) (A) (A) (A) (A)
                 (A) (A) (A) (A) (A) (A) (A) (A) (A) (A) (A) (A)
 The electronic state of the initial guess is 1-A.
 Requested convergence on RMS density matrix=1.00D-08 within1500 cycles.
 Requested convergence on MAX density matrix=1.00D-06.
 Requested convergence on             energy=1.00D-06.
 No special actions if energy rises.
 Restarting incremental Fock formation.
 Restarting incremental Fock formation.
 SCF Done:  E(RB3LYP) =  -2518.96674693     A.U. after   44 cycles
             Convg  =    0.4080D-08             -V/T =  2.0077
 Range of M.O.s used for correlation:     1   949
 NBasis=   964 NAE=   157 NBE=   157 NFC=     0 NFV=     0
 NROrb=    949 NOA=   157 NOB=   157 NVA=   792 NVB=   792

 **** Warning!!: The largest alpha MO coefficient is  0.14915221D+03


 **** Warning!!: The smallest alpha delta epsilon is  0.84093403D-01

 PrsmSu:  requested number of processors reduced to:   4 ShMem   1 Linda.
 PrsmSu:  requested number of processors reduced to:   1 ShMem   1 Linda.
 PrsmSu:  requested number of processors reduced to:   1 ShMem   1 Linda.
 PrsmSu:  requested number of processors reduced to:   1 ShMem   1 Linda.
 PrsmSu:  requested number of processors reduced to:   1 ShMem   1 Linda.
 Symmetrizing basis deriv contribution to polar:
 IMax=3 JMax=2 DiffMx= 0.00D+00
 G2DrvN: will do     1 centers at a time, making   69 passes doing MaxLOS=2.
 Estimated number of processors is:    5
 Calling FoFCou, ICntrl=  3107 FMM=T I1Cent=   0 AccDes= 0.00D+00.
 Calling FoFCou, ICntrl=  3107 FMM=T I1Cent=   0 AccDes= 0.00D+00.
 CoulSu:  requested number of processors reduced to:   5 ShMem   1 Linda.
 Calling FoFCou, ICntrl=  3107 FMM=T I1Cent=   0 AccDes= 0.00D+00.
 CoulSu:  requested number of processors reduced to:   5 ShMem   1 Linda.
 Calling FoFCou, ICntrl=  3107 FMM=T I1Cent=   0 AccDes= 0.00D+00.
 CoulSu:  requested number of processors reduced to:   5 ShMem   1 Linda.
 Calling FoFCou, ICntrl=  3107 FMM=T I1Cent=   0 AccDes= 0.00D+00.
 CoulSu:  requested number of processors reduced to:   5 ShMem   1 Linda.
 Calling FoFCou, ICntrl=  3107 FMM=T I1Cent=   0 AccDes= 0.00D+00.
 CoulSu:  requested number of processors reduced to:   5 ShMem   1 Linda.
 Calling FoFCou, ICntrl=  3107 FMM=T I1Cent=   0 AccDes= 0.00D+00.
 CoulSu:  requested number of processors reduced to:   5 ShMem   1 Linda.
 Calling FoFCou, ICntrl=  3107 FMM=T I1Cent=   0 AccDes= 0.00D+00.
 CoulSu:  requested number of processors reduced to:   5 ShMem   1 Linda.
 Calling FoFCou, ICntrl=  3107 FMM=T I1Cent=   0 AccDes= 0.00D+00.
 CoulSu:  requested number of processors reduced to:   5 ShMem   1 Linda.
 Calling FoFCou, ICntrl=  3107 FMM=T I1Cent=   0 AccDes= 0.00D+00.
 CoulSu:  requested number of processors reduced to:   5 ShMem   1 Linda.
 Calling FoFCou, ICntrl=  3107 FMM=T I1Cent=   0 AccDes= 0.00D+00.
 CoulSu:  requested number of processors reduced to:   5 ShMem   1 Linda.
 Calling FoFCou, ICntrl=  3107 FMM=T I1Cent=   0 AccDes= 0.00D+00.
 CoulSu:  requested number of processors reduced to:   5 ShMem   1 Linda.
 Calling FoFCou, ICntrl=  3107 FMM=T I1Cent=   0 AccDes= 0.00D+00.
 CoulSu:  requested number of processors reduced to:   5 ShMem   1 Linda.
 Calling FoFCou, ICntrl=  3107 FMM=T I1Cent=   0 AccDes= 0.00D+00.
 CoulSu:  requested number of processors reduced to:   5 ShMem   1 Linda.
 Calling FoFCou, ICntrl=  3107 FMM=T I1Cent=   0 AccDes= 0.00D+00.
 CoulSu:  requested number of processors reduced to:   5 ShMem   1 Linda.
 Calling FoFCou, ICntrl=  3107 FMM=T I1Cent=   0 AccDes= 0.00D+00.
 CoulSu:  requested number of processors reduced to:   5 ShMem   1 Linda.
 Calling FoFCou, ICntrl=  3107 FMM=T I1Cent=   0 AccDes= 0.00D+00.
 CoulSu:  requested number of processors reduced to:   5 ShMem   1 Linda.
 Calling FoFCou, ICntrl=  3107 FMM=T I1Cent=   0 AccDes= 0.00D+00.
 CoulSu:  requested number of processors reduced to:   5 ShMem   1 Linda.
 Calling FoFCou, ICntrl=  3107 FMM=T I1Cent=   0 AccDes= 0.00D+00.
 CoulSu:  requested number of processors reduced to:   5 ShMem   1 Linda.
 Calling FoFCou, ICntrl=  3107 FMM=T I1Cent=   0 AccDes= 0.00D+00.
 CoulSu:  requested number of processors reduced to:   5 ShMem   1 Linda.
 Calling FoFCou, ICntrl=  3107 FMM=T I1Cent=   0 AccDes= 0.00D+00.
 CoulSu:  requested number of processors reduced to:   5 ShMem   1 Linda.
 Calling FoFCou, ICntrl=  3107 FMM=T I1Cent=   0 AccDes= 0.00D+00.
 CoulSu:  requested number of processors reduced to:   5 ShMem   1 Linda.
 Calling FoFCou, ICntrl=  3107 FMM=T I1Cent=   0 AccDes= 0.00D+00.
 CoulSu:  requested number of processors reduced to:   5 ShMem   1 Linda.
 Calling FoFCou, ICntrl=  3107 FMM=T I1Cent=   0 AccDes= 0.00D+00.
 CoulSu:  requested number of processors reduced to:   5 ShMem   1 Linda.
 Calling FoFCou, ICntrl=  3107 FMM=T I1Cent=   0 AccDes= 0.00D+00.
 CoulSu:  requested number of processors reduced to:   5 ShMem   1 Linda.
 Calling FoFCou, ICntrl=  3107 FMM=T I1Cent=   0 AccDes= 0.00D+00.
 CoulSu:  requested number of processors reduced to:   5 ShMem   1 Linda.
 Calling FoFCou, ICntrl=  3107 FMM=T I1Cent=   0 AccDes= 0.00D+00.
 CoulSu:  requested number of processors reduced to:   5 ShMem   1 Linda.
 Calling FoFCou, ICntrl=  3107 FMM=T I1Cent=   0 AccDes= 0.00D+00.
 CoulSu:  requested number of processors reduced to:   5 ShMem   1 Linda.
 Calling FoFCou, ICntrl=  3107 FMM=T I1Cent=   0 AccDes= 0.00D+00.
 CoulSu:  requested number of processors reduced to:   5 ShMem   1 Linda.
 Calling FoFCou, ICntrl=  3107 FMM=T I1Cent=   0 AccDes= 0.00D+00.
 CoulSu:  requested number of processors reduced to:   5 ShMem   1 Linda.
 Calling FoFCou, ICntrl=  3107 FMM=T I1Cent=   0 AccDes= 0.00D+00.
 CoulSu:  requested number of processors reduced to:   5 ShMem   1 Linda.
 Calling FoFCou, ICntrl=  3107 FMM=T I1Cent=   0 AccDes= 0.00D+00.
 CoulSu:  requested number of processors reduced to:   5 ShMem   1 Linda.
 Calling FoFCou, ICntrl=  3107 FMM=T I1Cent=   0 AccDes= 0.00D+00.
 CoulSu:  requested number of processors reduced to:   5 ShMem   1 Linda.
 Calling FoFCou, ICntrl=  3107 FMM=T I1Cent=   0 AccDes= 0.00D+00.
 CoulSu:  requested number of processors reduced to:   5 ShMem   1 Linda.
 Calling FoFCou, ICntrl=  3107 FMM=T I1Cent=   0 AccDes= 0.00D+00.
 CoulSu:  requested number of processors reduced to:   5 ShMem   1 Linda.
 Calling FoFCou, ICntrl=  3107 FMM=T I1Cent=   0 AccDes= 0.00D+00.
 CoulSu:  requested number of processors reduced to:   5 ShMem   1 Linda.
 Calling FoFCou, ICntrl=  3107 FMM=T I1Cent=   0 AccDes= 0.00D+00.
 CoulSu:  requested number of processors reduced to:   5 ShMem   1 Linda.
 Calling FoFCou, ICntrl=  3107 FMM=T I1Cent=   0 AccDes= 0.00D+00.
 CoulSu:  requested number of processors reduced to:   5 ShMem   1 Linda.
 Calling FoFCou, ICntrl=  3107 FMM=T I1Cent=   0 AccDes= 0.00D+00.
 CoulSu:  requested number of processors reduced to:   5 ShMem   1 Linda.
 Calling FoFCou, ICntrl=  3107 FMM=T I1Cent=   0 AccDes= 0.00D+00.
 CoulSu:  requested number of processors reduced to:   5 ShMem   1 Linda.
 Calling FoFCou, ICntrl=  3107 FMM=T I1Cent=   0 AccDes= 0.00D+00.
 CoulSu:  requested number of processors reduced to:   5 ShMem   1 Linda.
 Calling FoFCou, ICntrl=  3107 FMM=T I1Cent=   0 AccDes= 0.00D+00.
 CoulSu:  requested number of processors reduced to:   5 ShMem   1 Linda.
 Calling FoFCou, ICntrl=  3107 FMM=T I1Cent=   0 AccDes= 0.00D+00.
 CoulSu:  requested number of processors reduced to:   5 ShMem   1 Linda.
 Calling FoFCou, ICntrl=  3107 FMM=T I1Cent=   0 AccDes= 0.00D+00.
 CoulSu:  requested number of processors reduced to:   5 ShMem   1 Linda.
 Calling FoFCou, ICntrl=  3107 FMM=T I1Cent=   0 AccDes= 0.00D+00.
 CoulSu:  requested number of processors reduced to:   5 ShMem   1 Linda.
 Calling FoFCou, ICntrl=  3107 FMM=T I1Cent=   0 AccDes= 0.00D+00.
 CoulSu:  requested number of processors reduced to:   5 ShMem   1 Linda.
 Calling FoFCou, ICntrl=  3107 FMM=T I1Cent=   0 AccDes= 0.00D+00.
 CoulSu:  requested number of processors reduced to:   5 ShMem   1 Linda.
 Calling FoFCou, ICntrl=  3107 FMM=T I1Cent=   0 AccDes= 0.00D+00.
 CoulSu:  requested number of processors reduced to:   5 ShMem   1 Linda.
 Calling FoFCou, ICntrl=  3107 FMM=T I1Cent=   0 AccDes= 0.00D+00.
 CoulSu:  requested number of processors reduced to:   5 ShMem   1 Linda.
 Calling FoFCou, ICntrl=  3107 FMM=T I1Cent=   0 AccDes= 0.00D+00.
 CoulSu:  requested number of processors reduced to:   5 ShMem   1 Linda.
 Calling FoFCou, ICntrl=  3107 FMM=T I1Cent=   0 AccDes= 0.00D+00.
 CoulSu:  requested number of processors reduced to:   5 ShMem   1 Linda.
 Calling FoFCou, ICntrl=  3107 FMM=T I1Cent=   0 AccDes= 0.00D+00.
 CoulSu:  requested number of processors reduced to:   5 ShMem   1 Linda.
 Calling FoFCou, ICntrl=  3107 FMM=T I1Cent=   0 AccDes= 0.00D+00.
 CoulSu:  requested number of processors reduced to:   5 ShMem   1 Linda.
 Calling FoFCou, ICntrl=  3107 FMM=T I1Cent=   0 AccDes= 0.00D+00.
 CoulSu:  requested number of processors reduced to:   5 ShMem   1 Linda.
 Calling FoFCou, ICntrl=  3107 FMM=T I1Cent=   0 AccDes= 0.00D+00.
 CoulSu:  requested number of processors reduced to:   5 ShMem   1 Linda.
 Calling FoFCou, ICntrl=  3107 FMM=T I1Cent=   0 AccDes= 0.00D+00.
 CoulSu:  requested number of processors reduced to:   5 ShMem   1 Linda.
 Calling FoFCou, ICntrl=  3107 FMM=T I1Cent=   0 AccDes= 0.00D+00.
 CoulSu:  requested number of processors reduced to:   5 ShMem   1 Linda.
 Calling FoFCou, ICntrl=  3107 FMM=T I1Cent=   0 AccDes= 0.00D+00.
 CoulSu:  requested number of processors reduced to:   5 ShMem   1 Linda.
 Calling FoFCou, ICntrl=  3107 FMM=T I1Cent=   0 AccDes= 0.00D+00.
 CoulSu:  requested number of processors reduced to:   5 ShMem   1 Linda.
 Calling FoFCou, ICntrl=  3107 FMM=T I1Cent=   0 AccDes= 0.00D+00.
 CoulSu:  requested number of processors reduced to:   5 ShMem   1 Linda.
 Calling FoFCou, ICntrl=  3107 FMM=T I1Cent=   0 AccDes= 0.00D+00.
 CoulSu:  requested number of processors reduced to:   5 ShMem   1 Linda.
 Calling FoFCou, ICntrl=  3107 FMM=T I1Cent=   0 AccDes= 0.00D+00.
 CoulSu:  requested number of processors reduced to:   5 ShMem   1 Linda.
 Calling FoFCou, ICntrl=  3107 FMM=T I1Cent=   0 AccDes= 0.00D+00.
 CoulSu:  requested number of processors reduced to:   5 ShMem   1 Linda.
 Calling FoFCou, ICntrl=  3107 FMM=T I1Cent=   0 AccDes= 0.00D+00.
 CoulSu:  requested number of processors reduced to:   5 ShMem   1 Linda.
 Calling FoFCou, ICntrl=  3107 FMM=T I1Cent=   0 AccDes= 0.00D+00.
 CoulSu:  requested number of processors reduced to:   5 ShMem   1 Linda.
 Calling FoFCou, ICntrl=  3107 FMM=T I1Cent=   0 AccDes= 0.00D+00.
 CoulSu:  requested number of processors reduced to:   5 ShMem   1 Linda.
 Calling FoFCou, ICntrl=  3107 FMM=T I1Cent=   0 AccDes= 0.00D+00.
 CoulSu:  requested number of processors reduced to:   5 ShMem   1 Linda.
 Calling FoFCou, ICntrl=  3107 FMM=T I1Cent=   0 AccDes= 0.00D+00.
 CoulSu:  requested number of processors reduced to:   5 ShMem   1 Linda.
 Calling FoFCou, ICntrl=  3107 FMM=T I1Cent=   0 AccDes= 0.00D+00.
 CoulSu:  requested number of processors reduced to:   5 ShMem   1 Linda.
 FoFDir/FoFCou used for L=0 through L=2.
 End of G2Drv Frequency-dependent properties file   721 does not exist.
 End of G2Drv Frequency-dependent properties file   722 does not exist.
          IDoAtm=11111111111111111111111111111111111111111111111111
          IDoAtm=111111111111111111
          Differentiating once with respect to nuclear coordinates.
 CalDSu exits because no D1Ps are significant.
          There are   207 degrees of freedom in the 1st order CPHF.  IDoFFX=5.
    204 vectors produced by pass  0 Test12= 1.24D-09 1.00D-07 XBig12= 4.01D-01 1.76D-01.
 AX will form     3 AO Fock derivatives at one time.
    203 vectors produced by pass  1 Test12= 1.24D-09 1.00D-07 XBig12= 1.39D-01 6.83D-02.
    201 vectors produced by pass  2 Test12= 1.24D-09 1.00D-07 XBig12= 2.02D-03 5.66D-03.
    201 vectors produced by pass  3 Test12= 1.24D-09 1.00D-07 XBig12= 1.46D-05 2.39D-04.
    192 vectors produced by pass  4 Test12= 1.24D-09 1.00D-07 XBig12= 3.66D-08 1.22D-05.
     89 vectors produced by pass  5 Test12= 1.24D-09 1.00D-07 XBig12= 1.06D-10 5.75D-07.
      4 vectors produced by pass  6 Test12= 1.24D-09 1.00D-07 XBig12= 9.23D-12 1.33D-07.
 Inverted reduced A of dimension  1094 with in-core refinement.
 End of Minotr Frequency-dependent properties file   721 does not exist.
 End of Minotr Frequency-dependent properties file   722 does not exist.

 **********************************************************************

            Population analysis using the SCF density.

 **********************************************************************

 Orbital symmetries:
       Occupied  (A) (A) (A) (A) (A) (A) (A) (A) (A) (A) (A) (A)
                 (A) (A) (A) (A) (A) (A) (A) (A) (A) (A) (A) (A)
                 (A) (A) (A) (A) (A) (A) (A) (A) (A) (A) (A) (A)
                 (A) (A) (A) (A) (A) (A) (A) (A) (A) (A) (A) (A)
                 (A) (A) (A) (A) (A) (A) (A) (A) (A) (A) (A) (A)
                 (A) (A) (A) (A) (A) (A) (A) (A) (A) (A) (A) (A)
                 (A) (A) (A) (A) (A) (A) (A) (A) (A) (A) (A) (A)
                 (A) (A) (A) (A) (A) (A) (A) (A) (A) (A) (A) (A)
                 (A) (A) (A) (A) (A) (A) (A) (A) (A) (A) (A) (A)
                 (A) (A) (A) (A) (A) (A) (A) (A) (A) (A) (A) (A)
                 (A) (A) (A) (A) (A) (A) (A) (A) (A) (A) (A) (A)
                 (A) (A) (A) (A) (A) (A) (A) (A) (A) (A) (A) (A)
                 (A) (A) (A) (A) (A) (A) (A) (A) (A) (A) (A) (A)
                 (A)
       Virtual   (A) (A) (A) (A) (A) (A) (A) (A) (A) (A) (A) (A)
                 (A) (A) (A) (A) (A) (A) (A) (A) (A) (A) (A) (A)
                 (A) (A) (A) (A) (A) (A) (A) (A) (A) (A) (A) (A)
                 (A) (A) (A) (A) (A) (A) (A) (A) (A) (A) (A) (A)
                 (A) (A) (A) (A) (A) (A) (A) (A) (A) (A) (A) (A)
                 (A) (A) (A) (A) (A) (A) (A) (A) (A) (A) (A) (A)
                 (A) (A) (A) (A) (A) (A) (A) (A) (A) (A) (A) (A)
                 (A) (A) (A) (A) (A) (A) (A) (A) (A) (A) (A) (A)
                 (A) (A) (A) (A) (A) (A) (A) (A) (A) (A) (A) (A)
                 (A) (A) (A) (A) (A) (A) (A) (A) (A) (A) (A) (A)
                 (A) (A) (A) (A) (A) (A) (A) (A) (A) (A) (A) (A)
                 (A) (A) (A) (A) (A) (A) (A) (A) (A) (A) (A) (A)
                 (A) (A) (A) (A) (A) (A) (A) (A) (A) (A) (A) (A)
                 (A) (A) (A) (A) (A) (A) (A) (A) (A) (A) (A) (A)
                 (A) (A) (A) (A) (A) (A) (A) (A) (A) (A) (A) (A)
                 (A) (A) (A) (A) (A) (A) (A) (A) (A) (A) (A) (A)
                 (A) (A) (A) (A) (A) (A) (A) (A) (A) (A) (A) (A)
                 (A) (A) (A) (A) (A) (A) (A) (A) (A) (A) (A) (A)
                 (A) (A) (A) (A) (A) (A) (A) (A) (A) (A) (A) (A)
                 (A) (A) (A) (A) (A) (A) (A) (A) (A) (A) (A) (A)
                 (A) (A) (A) (A) (A) (A) (A) (A) (A) (A) (A) (A)
                 (A) (A) (A) (A) (A) (A) (A) (A) (A) (A) (A) (A)
                 (A) (A) (A) (A) (A) (A) (A) (A) (A) (A) (A) (A)
                 (A) (A) (A) (A) (A) (A) (A) (A) (A) (A) (A) (A)
                 (A) (A) (A) (A) (A) (A) (A) (A) (A) (A) (A) (A)
                 (A) (A) (A) (A) (A) (A) (A) (A) (A) (A) (A) (A)
                 (A) (A) (A) (A) (A) (A) (A) (A) (A) (A) (A) (A)
                 (A) (A) (A) (A) (A) (A) (A) (A) (A) (A) (A) (A)
                 (A) (A) (A) (A) (A) (A) (A) (A) (A) (A) (A) (A)
                 (A) (A) (A) (A) (A) (A) (A) (A) (A) (A) (A) (A)
                 (A) (A) (A) (A) (A) (A) (A) (A) (A) (A) (A) (A)
                 (A) (A) (A) (A) (A) (A) (A) (A) (A) (A) (A) (A)
                 (A) (A) (A) (A) (A) (A) (A) (A) (A) (A) (A) (A)
                 (A) (A) (A) (A) (A) (A) (A) (A) (A) (A) (A) (A)
                 (A) (A) (A) (A) (A) (A) (A) (A) (A) (A) (A) (A)
                 (A) (A) (A) (A) (A) (A) (A) (A) (A) (A) (A) (A)
                 (A) (A) (A) (A) (A) (A) (A) (A) (A) (A) (A) (A)
                 (A) (A) (A) (A) (A) (A) (A) (A) (A) (A) (A) (A)
                 (A) (A) (A) (A) (A) (A) (A) (A) (A) (A) (A) (A)
                 (A) (A) (A) (A) (A) (A) (A) (A) (A) (A) (A) (A)
                 (A) (A) (A) (A) (A) (A) (A) (A) (A) (A) (A) (A)
                 (A) (A) (A) (A) (A) (A) (A) (A) (A) (A) (A) (A)
                 (A) (A) (A) (A) (A) (A) (A) (A) (A) (A) (A) (A)
                 (A) (A) (A) (A) (A) (A) (A) (A) (A) (A) (A) (A)
                 (A) (A) (A) (A) (A) (A) (A) (A) (A) (A) (A) (A)
                 (A) (A) (A) (A) (A) (A) (A) (A) (A) (A) (A) (A)
                 (A) (A) (A) (A) (A) (A) (A) (A) (A) (A) (A) (A)
                 (A) (A) (A) (A) (A) (A) (A) (A) (A) (A) (A) (A)
                 (A) (A) (A) (A) (A) (A) (A) (A) (A) (A) (A) (A)
                 (A) (A) (A) (A) (A) (A) (A) (A) (A) (A) (A) (A)
                 (A) (A) (A) (A) (A) (A) (A) (A) (A) (A) (A) (A)
                 (A) (A) (A) (A) (A) (A) (A) (A) (A) (A) (A) (A)
                 (A) (A) (A) (A) (A) (A) (A) (A) (A) (A) (A) (A)
                 (A) (A) (A) (A) (A) (A) (A) (A) (A) (A) (A) (A)
                 (A) (A) (A) (A) (A) (A) (A) (A) (A) (A) (A) (A)
                 (A) (A) (A) (A) (A) (A) (A) (A) (A) (A) (A) (A)
                 (A) (A) (A) (A) (A) (A) (A) (A) (A) (A) (A) (A)
                 (A) (A) (A) (A) (A) (A) (A) (A) (A) (A) (A) (A)
                 (A) (A) (A) (A) (A) (A) (A) (A) (A) (A) (A) (A)
                 (A) (A) (A) (A) (A) (A) (A) (A) (A) (A) (A) (A)
                 (A) (A) (A) (A) (A) (A) (A) (A) (A) (A) (A) (A)
                 (A) (A) (A) (A) (A) (A) (A) (A) (A) (A) (A) (A)
                 (A) (A) (A) (A) (A) (A) (A) (A) (A) (A) (A) (A)
                 (A) (A) (A) (A) (A) (A) (A) (A) (A) (A) (A) (A)
                 (A) (A) (A) (A) (A) (A) (A) (A) (A) (A) (A) (A)
                 (A) (A) (A) (A) (A) (A) (A) (A) (A) (A) (A) (A)
 The electronic state is 1-A.
 Alpha  occ. eigenvalues --  -88.92406 -88.92399 -19.13883 -19.13871 -14.39218
 Alpha  occ. eigenvalues --  -14.39216 -10.30751 -10.30749 -10.27193 -10.27186
 Alpha  occ. eigenvalues --  -10.24196 -10.24196 -10.24095 -10.24092 -10.23211
 Alpha  occ. eigenvalues --  -10.23202 -10.22683 -10.22667 -10.22524 -10.22523
 Alpha  occ. eigenvalues --  -10.21989 -10.21980 -10.21420 -10.21412 -10.21128
 Alpha  occ. eigenvalues --  -10.21126 -10.20975 -10.20955 -10.20954 -10.20953
 Alpha  occ. eigenvalues --  -10.20825 -10.20822 -10.20796 -10.20793 -10.20730
 Alpha  occ. eigenvalues --  -10.20720 -10.20717 -10.20705 -10.20702 -10.20689
 Alpha  occ. eigenvalues --  -10.20581 -10.20576 -10.20102 -10.20056  -7.98336
 Alpha  occ. eigenvalues --   -7.98330  -5.94765  -5.94760  -5.94396  -5.94391
 Alpha  occ. eigenvalues --   -5.94032  -5.94026  -1.05422  -1.04918  -0.98258
 Alpha  occ. eigenvalues --   -0.96954  -0.90551  -0.90547  -0.88058  -0.88041
 Alpha  occ. eigenvalues --   -0.86672  -0.86668  -0.81712  -0.81181  -0.80873
 Alpha  occ. eigenvalues --   -0.78273  -0.77970  -0.77014  -0.76913  -0.76338
 Alpha  occ. eigenvalues --   -0.76299  -0.75082  -0.74720  -0.73966  -0.72931
 Alpha  occ. eigenvalues --   -0.70793  -0.68810  -0.68591  -0.64731  -0.63636
 Alpha  occ. eigenvalues --   -0.63431  -0.63385  -0.62349  -0.62105  -0.61684
 Alpha  occ. eigenvalues --   -0.61118  -0.58039  -0.56730  -0.56511  -0.56064
 Alpha  occ. eigenvalues --   -0.55860  -0.55365  -0.54683  -0.54605  -0.53763
 Alpha  occ. eigenvalues --   -0.53171  -0.50688  -0.50351  -0.49752  -0.47920
 Alpha  occ. eigenvalues --   -0.47834  -0.47493  -0.47399  -0.47090  -0.46921
 Alpha  occ. eigenvalues --   -0.46699  -0.46144  -0.45843  -0.45353  -0.45139
 Alpha  occ. eigenvalues --   -0.44723  -0.44159  -0.43757  -0.43574  -0.43478
 Alpha  occ. eigenvalues --   -0.43276  -0.43168  -0.43032  -0.41727  -0.41706
 Alpha  occ. eigenvalues --   -0.41039  -0.41022  -0.40275  -0.40095  -0.39608
 Alpha  occ. eigenvalues --   -0.39582  -0.39072  -0.38674  -0.38133  -0.37805
 Alpha  occ. eigenvalues --   -0.37407  -0.37219  -0.37212  -0.36410  -0.36406
 Alpha  occ. eigenvalues --   -0.35644  -0.35606  -0.35302  -0.34686  -0.34158
 Alpha  occ. eigenvalues --   -0.34134  -0.30825  -0.30590  -0.28345  -0.27871
 Alpha  occ. eigenvalues --   -0.27656  -0.27283  -0.27275  -0.27169  -0.27013
 Alpha  occ. eigenvalues --   -0.26854  -0.26714  -0.26437  -0.26399  -0.22620
 Alpha  occ. eigenvalues --   -0.21780  -0.19513
 Alpha virt. eigenvalues --   -0.11103  -0.07795  -0.06219  -0.04105  -0.02881
 Alpha virt. eigenvalues --   -0.02627  -0.02488  -0.02478  -0.01777  -0.00919
 Alpha virt. eigenvalues --   -0.00677  -0.00360  -0.00233  -0.00111   0.00853
 Alpha virt. eigenvalues --    0.00870   0.01021   0.01032   0.01486   0.01758
 Alpha virt. eigenvalues --    0.02019   0.02387   0.02643   0.02834   0.02849
 Alpha virt. eigenvalues --    0.02993   0.03206   0.03273   0.03426   0.03714
 Alpha virt. eigenvalues --    0.04389   0.04588   0.04631   0.04839   0.04964
 Alpha virt. eigenvalues --    0.05071   0.05160   0.05545   0.05616   0.05844
 Alpha virt. eigenvalues --    0.06323   0.06558   0.06589   0.06791   0.06834
 Alpha virt. eigenvalues --    0.07294   0.07546   0.07618   0.08192   0.08276
 Alpha virt. eigenvalues --    0.08451   0.08622   0.08996   0.09373   0.09406
 Alpha virt. eigenvalues --    0.09417   0.09605   0.09800   0.09852   0.10163
 Alpha virt. eigenvalues --    0.10320   0.10658   0.10810   0.11258   0.11344
 Alpha virt. eigenvalues --    0.11572   0.11822   0.12020   0.12132   0.12370
 Alpha virt. eigenvalues --    0.12505   0.12688   0.12818   0.12931   0.13006
 Alpha virt. eigenvalues --    0.13091   0.13249   0.13324   0.13597   0.13694
 Alpha virt. eigenvalues --    0.13962   0.14187   0.14607   0.14702   0.14738
 Alpha virt. eigenvalues --    0.14868   0.15255   0.15292   0.15440   0.15645
 Alpha virt. eigenvalues --    0.15917   0.15973   0.16013   0.16088   0.16399
 Alpha virt. eigenvalues --    0.16521   0.16685   0.16734   0.17290   0.17333
 Alpha virt. eigenvalues --    0.17449   0.17485   0.17513   0.17802   0.17952
 Alpha virt. eigenvalues --    0.18099   0.18130   0.18363   0.18465   0.18572
 Alpha virt. eigenvalues --    0.18887   0.18932   0.19061   0.19232   0.19250
 Alpha virt. eigenvalues --    0.19370   0.19690   0.19876   0.19983   0.20117
 Alpha virt. eigenvalues --    0.20212   0.20472   0.20755   0.20822   0.21063
 Alpha virt. eigenvalues --    0.21412   0.21512   0.21556   0.21583   0.21844
 Alpha virt. eigenvalues --    0.22137   0.22208   0.22393   0.22475   0.22505
 Alpha virt. eigenvalues --    0.22927   0.23031   0.23170   0.23261   0.23535
 Alpha virt. eigenvalues --    0.23547   0.23831   0.23879   0.23926   0.24266
 Alpha virt. eigenvalues --    0.24280   0.24388   0.24423   0.24476   0.24735
 Alpha virt. eigenvalues --    0.24976   0.24994   0.25386   0.25514   0.25625
 Alpha virt. eigenvalues --    0.25812   0.25860   0.26145   0.26212   0.26424
 Alpha virt. eigenvalues --    0.26644   0.26816   0.26836   0.26958   0.27053
 Alpha virt. eigenvalues --    0.27269   0.27558   0.27740   0.28190   0.28249
 Alpha virt. eigenvalues --    0.28427   0.28481   0.28816   0.29054   0.29112
 Alpha virt. eigenvalues --    0.29394   0.29835   0.29946   0.30043   0.30127
 Alpha virt. eigenvalues --    0.30223   0.30446   0.30972   0.31000   0.31103
 Alpha virt. eigenvalues --    0.31296   0.31775   0.31864   0.32257   0.32536
 Alpha virt. eigenvalues --    0.32654   0.32887   0.32952   0.33105   0.33549
 Alpha virt. eigenvalues --    0.33592   0.33896   0.34258   0.34309   0.34399
 Alpha virt. eigenvalues --    0.34672   0.34724   0.34954   0.35085   0.35752
 Alpha virt. eigenvalues --    0.35894   0.36190   0.36406   0.36814   0.36847
 Alpha virt. eigenvalues --    0.37496   0.37935   0.38247   0.38508   0.38665
 Alpha virt. eigenvalues --    0.38991   0.39266   0.40533   0.40739   0.40840
 Alpha virt. eigenvalues --    0.41093   0.41138   0.42178   0.42213   0.42447
 Alpha virt. eigenvalues --    0.42537   0.42709   0.43353   0.45395   0.45579
 Alpha virt. eigenvalues --    0.45686   0.46294   0.46872   0.47281   0.49268
 Alpha virt. eigenvalues --    0.49277   0.49578   0.50557   0.50601   0.51333
 Alpha virt. eigenvalues --    0.51813   0.52033   0.52514   0.52865   0.53405
 Alpha virt. eigenvalues --    0.53671   0.54491   0.55692   0.56806   0.57622
 Alpha virt. eigenvalues --    0.58140   0.58872   0.60122   0.60290   0.61188
 Alpha virt. eigenvalues --    0.61396   0.61991   0.62140   0.63235   0.63309
 Alpha virt. eigenvalues --    0.64048   0.64543   0.65031   0.65564   0.65617
 Alpha virt. eigenvalues --    0.65773   0.65860   0.65999   0.66342   0.66751
 Alpha virt. eigenvalues --    0.67017   0.67159   0.67189   0.67224   0.67453
 Alpha virt. eigenvalues --    0.67682   0.69040   0.69285   0.69326   0.69407
 Alpha virt. eigenvalues --    0.70316   0.70373   0.70415   0.70571   0.70795
 Alpha virt. eigenvalues --    0.70811   0.71015   0.71053   0.71478   0.72052
 Alpha virt. eigenvalues --    0.72211   0.72261   0.72367   0.72772   0.72874
 Alpha virt. eigenvalues --    0.72929   0.73893   0.74042   0.74444   0.74630
 Alpha virt. eigenvalues --    0.74886   0.75026   0.75245   0.75640   0.75738
 Alpha virt. eigenvalues --    0.76108   0.76142   0.76854   0.77176   0.77253
 Alpha virt. eigenvalues --    0.78087   0.78161   0.78323   0.78816   0.79211
 Alpha virt. eigenvalues --    0.79920   0.80076   0.80786   0.81129   0.81152
 Alpha virt. eigenvalues --    0.81388   0.81437   0.81863   0.81971   0.82572
 Alpha virt. eigenvalues --    0.82800   0.83287   0.83517   0.84662   0.84861
 Alpha virt. eigenvalues --    0.86261   0.86277   0.86509   0.87786   0.87924
 Alpha virt. eigenvalues --    0.88517   0.89170   0.89275   0.89835   0.90616
 Alpha virt. eigenvalues --    0.90661   0.90942   0.91402   0.91615   0.91994
 Alpha virt. eigenvalues --    0.92123   0.93354   0.93678   0.93838   0.93861
 Alpha virt. eigenvalues --    0.94289   0.95214   0.95385   0.96198   0.96491
 Alpha virt. eigenvalues --    0.96881   0.97621   0.97695   0.98270   0.98709
 Alpha virt. eigenvalues --    0.98797   0.99249   0.99283   0.99797   1.00397
 Alpha virt. eigenvalues --    1.01449   1.01504   1.02083   1.02408   1.02980
 Alpha virt. eigenvalues --    1.03151   1.03401   1.04736   1.05029   1.05257
 Alpha virt. eigenvalues --    1.06603   1.07402   1.08323   1.08432   1.08653
 Alpha virt. eigenvalues --    1.09064   1.09302   1.09404   1.09535   1.10515
 Alpha virt. eigenvalues --    1.10735   1.11258   1.11563   1.12241   1.12505
 Alpha virt. eigenvalues --    1.13490   1.13787   1.14731   1.14843   1.15106
 Alpha virt. eigenvalues --    1.15555   1.16089   1.16624   1.16698   1.17917
 Alpha virt. eigenvalues --    1.18183   1.19048   1.19138   1.20370   1.20796
 Alpha virt. eigenvalues --    1.21365   1.21774   1.22163   1.22364   1.22623
 Alpha virt. eigenvalues --    1.23223   1.23382   1.24248   1.24429   1.24614
 Alpha virt. eigenvalues --    1.24809   1.25272   1.25734   1.25913   1.26483
 Alpha virt. eigenvalues --    1.26740   1.26980   1.27244   1.27728   1.27915
 Alpha virt. eigenvalues --    1.28544   1.28634   1.29822   1.29865   1.30154
 Alpha virt. eigenvalues --    1.30240   1.30396   1.31640   1.31828   1.32967
 Alpha virt. eigenvalues --    1.33016   1.33368   1.33422   1.34032   1.34048
 Alpha virt. eigenvalues --    1.34852   1.34869   1.35168   1.35782   1.36339
[...]
 00097,0.00000142,0.00000014,-0.00000135,-0.00000098,-0.00000015,-0.000
 14469,-0.00000271,0.00000390,-0.00000093,-0.00000718,-0.00001197,0.000
 05011,-0.00001713,-0.00001368,-0.00012383,0.00001787,0.00000037,-0.000
 01890,-0.00000528,-0.00000224,0.00023757,-0.00034568,0.00009534,0.0000
 1037,0.00000593,0.00001063,-0.00000622,0.00000711,-0.00000292,0.000004
 75,-0.00000435,-0.00000069,0.00000341,0.00000251,0.00000024,-0.0000071
 5,-0.00000742,0.00000403,0.00000106,-0.00000101,0.00000020,-0.00000471
 ,0.00000641,-0.00000171,-0.00000102,0.00000076,-0.00000003,0.00000542,
 0.00000233,-0.00000144,-0.00000216,-0.00000040,0.00000009,-0.00000262,
 -0.00000165,0.00000040,-0.00000018,0.00000138,0.00000031,0.00000044,0.
 00000074,0.00000039,0.00000058,-0.00000067,-0.00000090,0.00000086,-0.0
 0000024,-0.00000004,-0.00000239,-0.00000087,0.00000029,-0.00000023,-0.
 00000066,0.00000004,-0.00000077,0.00000043,0.00000028,-0.00000067,-0.0
 0000023,0.00000024,-0.00139120,0.00206236,0.00062901,0.00005640,-0.004
 32910,0.00138090,0.00046962,0.00055288,-0.00014228,-0.07096569,-0.3155
 8168,0.03529682,-0.00003619,0.00070853,-0.00085382,0.00376604,-0.00075
 281,0.00213745,-0.00001994,-0.00008779,-0.00018139,-0.00832487,-0.0157
 6285,0.00174646,0.07653034,0.33369074,0.00000118,-0.00000080,-0.000001
 12,-0.00000200,0.00000405,0.00000171,-0.00000129,0.00000075,0.00000056
 ,0.00000076,-0.00000177,-0.00000103,-0.00000365,-0.00000280,-0.0000005
 6,0.00000723,0.00000180,0.00000125,0.00000038,0.00000231,0.00000150,-0
 .00000034,0.00000006,-0.00000289,0.00000198,-0.00000316,-0.00000194,0.
 00000043,-0.00000172,-0.00000215,-0.00000006,0.00000043,0.00000313,-0.
 00000005,0.00000020,0.00000094,-0.00000877,0.00000091,0.00000202,0.000
 00606,-0.00000317,-0.00000275,0.00000677,0.00000238,-0.00000382,-0.000
 00886,-0.00000543,0.00000129,-0.00000006,0.,0.00000104,-0.00000741,0.0
 0000590,-0.00000145,0.00000046,-0.00000022,0.00000235,0.00002693,-0.00
 000462,-0.00000589,-0.00000055,-0.00000029,0.00000069,-0.00000056,0.00
 000179,0.00000572,0.00000076,-0.00000007,-0.00000008,-0.00000019,0.000
 00013,-0.00000021,-0.00000021,-0.00000003,-0.00000025,0.00000007,0.000
 00006,-0.00000038,0.,0.00000004,0.00000050,0.00000006,0.00000006,-0.00
 000031,0.00000004,-0.00000006,0.00000032,-0.00000007,-0.00000006,0.000
 00021,0.00000005,0.,0.00000031,-0.00000007,-0.00000003,0.00000022,-0.0
 0005264,0.00006996,0.00001892,0.00011284,-0.00005486,-0.00003446,0.000
 07971,-0.00001927,-0.00001562,-0.00008830,-0.00002461,-0.00015713,-0.0
 0000788,-0.00000557,0.00001463,0.00000314,-0.00013654,0.00037011,0.000
 00363,-0.00001623,-0.00001251,0.00000003,-0.00000013,-0.00000011,-0.00
 000013,-0.00000004,-0.00000022,0.00000003,0.00000009,0.00000011,0.0000
 0002,-0.00000008,-0.00000015,0.00000001,0.00000006,0.00000027,-0.00000
 004,-0.00000007,-0.00000012,0.,0.00000006,0.00000020,0.00000008,0.0000
 0005,-0.00000006,-0.00000013,0.00000006,-0.00000011,-0.00000004,0.0000
 0008,-0.00000007,0.,0.00000006,-0.00000005,0.00000007,-0.00000002,0.00
 000011,0.00000002,0.,-0.00000008,0.00000001,-0.00000006,0.00000011,-0.
 00000004,-0.00000002,-0.00000011,-0.00000001,-0.00000006,0.00000009,0.
 00000004,-0.00000001,0.00000009,0.00000001,0.,0.00000009,-0.00243960,0
 .00082935,0.00669024,-0.00126871,-0.00443286,0.00369251,-0.00017099,-0
 .00013492,-0.00072231,0.00410721,0.03556687,-0.04233607,0.00109145,-0.
 00083842,-0.00378357,-0.00230393,0.00205683,0.00616840,0.00023082,-0.0
 0019787,-0.00099989,0.00297337,0.00721270,0.00264089,-0.00325815,-0.03
 939169,0.03191480,-0.00000250,-0.00000031,0.00000031,0.00001368,0.0000
 6903,-0.00000033,0.00001657,0.00002292,-0.00000048,-0.00003189,-0.0000
 2480,0.00000050,-0.00003912,-0.00005349,0.00000184,0.00008741,-0.00000
 569,-0.00000032,0.00003148,-0.00000885,-0.00000049,-0.00002765,0.00001
 215,0.00000033,0.00001004,-0.00004809,0.00000117,-0.00001139,0.0000137
 8,0.00000068,0.00000492,-0.00000456,-0.00000067,0.00000224,0.00000296,
 -0.00000046,-0.00006913,0.00002513,-0.00000304,0.00002278,-0.00003119,
 -0.00000353,0.00002813,-0.00000558,0.00000281,-0.00008083,0.00000790,-
 0.00000698,-0.00000193,0.00000458,0.00000052,-0.00004525,0.00004415,0.
 00000353,-0.00000348,0.00000618,-0.00000088,0.00012269,-0.00010259,0.0
 0001247,0.00000552,0.00000239,-0.00000089,0.00000608,-0.00001404,0.000
 00201,-0.00000862,0.00000190,-0.00000014,-0.00000077,-0.00000627,0.000
 00019,0.00000777,0.00000547,0.00000002,-0.00000645,-0.00000605,0.00000
 063,0.00000145,-0.00000112,-0.00000017,-0.00001092,0.00001455,-0.00000
 031,0.00000196,0.00000054,-0.00000006,0.00001157,-0.00000999,0.0000010
 9,-0.00000081,0.00000139,0.,-0.00000166,-0.00000098,-0.00000031,-0.000
 21276,0.00009572,0.00003384,-0.00001223,-0.00003191,-0.00002389,-0.000
 20321,-0.00011114,-0.00010985,-0.00008383,-0.00003857,0.00007074,-0.00
 002183,-0.00001072,-0.00000751,-0.00027835,0.00124015,-0.00020663,0.00
 000747,-0.00000056,-0.00002929,-0.00000621,0.00000774,-0.00000297,0.00
 000521,-0.00000456,-0.00000048,0.00000360,0.00000213,0.00000028,-0.000
 00762,-0.00000812,0.00000412,0.00000101,-0.00000110,0.00000015,-0.0000
 0526,0.00000721,-0.00000144,-0.00000095,0.00000075,-0.00000006,0.00000
 579,0.00000240,-0.00000210,-0.00000232,-0.00000036,0.00000004,-0.00000
 263,-0.00000167,0.00000076,-0.00000012,0.00000139,0.00000068,0.0000005
 3,0.00000080,0.00000029,0.00000057,-0.00000072,-0.00000082,0.00000082,
 -0.00000029,-0.00000013,-0.00000261,-0.00000094,0.00000029,-0.00000035
 ,-0.00000074,-0.00000004,-0.00000072,0.00000045,0.00000019,-0.00000072
 ,-0.00000019,0.00000018,-0.00396835,-0.00318423,-0.00165792,-0.0003606
 6,-0.00096698,0.00024802,-0.01559219,0.02238758,-0.00802491,0.00088143
 ,-0.00244048,-0.00083227,-0.00001563,0.00014725,0.00019540,-0.18695881
 ,0.12937544,-0.05342997,0.00084751,-0.00004592,0.00097188,0.00966828,-
 0.00740417,0.00257342,0.00035377,-0.00046426,0.00010668,0.19534866,0.0
 0000340,-0.00000074,-0.00000025,-0.00000987,-0.00003065,0.00000014,-0.
 00001062,-0.00001028,-0.00000017,0.00001652,0.00001270,0.00000081,0.00
 001883,0.00002604,0.00000031,-0.00004157,0.00000259,-0.00000070,-0.000
 01746,0.00000429,0.00000080,0.00001433,-0.00000654,-0.00000026,-0.0000
 0332,0.00002020,-0.00000045,0.00000662,-0.00000713,-0.00000045,-0.0000
 0256,0.00000192,0.00000050,-0.00000146,-0.00000128,0.00000022,0.000032
 93,-0.00001236,-0.00000231,-0.00001381,0.00000863,0.00000003,-0.000014
 04,0.00000199,-0.00000125,0.00002197,0.00000588,0.00000055,-0.00000073
 ,-0.00000093,0.00000025,0.00002182,-0.00002172,-0.00000146,0.00000060,
 -0.00000267,0.00000055,-0.00006482,-0.00000316,0.00001508,-0.00000217,
 -0.00000152,0.00000050,-0.00000049,0.00000164,-0.00000044,0.00000528,-
 0.00000140,-0.00000002,0.00000013,0.00000344,-0.00000045,-0.00000455,-
 0.00000254,-0.00000005,0.00000395,0.00000344,-0.00000026,-0.00000091,0
 .00000057,0.00000011,0.00000621,-0.00000822,0.00000028,-0.00000104,-0.
 00000043,0.00000003,-0.00000716,0.00000553,-0.00000058,0.00000041,-0.0
 0000082,0.00000001,0.00000084,0.00000061,0.00000020,0.00001517,0.00004
 579,0.00001072,-0.00000290,-0.00001548,-0.00002236,-0.00013079,-0.0000
 4125,-0.00004071,0.00003373,0.00000650,0.00003212,0.00000233,0.0000028
 5,0.00000148,-0.00025689,0.00035186,-0.00002708,-0.00000975,-0.0000164
 1,-0.00001286,0.00000372,-0.00000437,0.00000150,-0.00000289,0.00000245
 ,0.00000031,-0.00000203,-0.00000127,-0.00000007,0.00000433,0.00000465,
 -0.00000233,-0.00000057,0.00000071,-0.00000007,0.00000278,-0.00000397,
 0.00000068,0.00000053,-0.00000045,0.00000007,-0.00000348,-0.00000149,0
 .00000136,0.00000137,0.00000023,0.00000006,0.00000159,0.00000096,-0.00
 000056,0.00000012,-0.00000078,-0.00000046,-0.00000031,-0.00000046,-0.0
 0000018,-0.00000040,0.00000044,0.00000049,-0.00000051,0.00000015,0.000
 00009,0.00000153,0.00000057,-0.00000014,0.00000019,0.00000044,0.000000
 02,0.00000045,-0.00000030,-0.00000012,0.00000044,0.00000014,-0.0000001
 1,-0.00263924,0.00086697,0.00060407,-0.00091041,-0.00029454,-0.0002549
 3,-0.00763522,0.00943891,-0.00269807,-0.00337525,-0.00457470,0.0013925
 1,0.00014339,0.00001574,-0.00016911,0.12969039,-0.19099619,0.05404239,
 0.00049361,0.00069045,-0.00081527,0.02262075,-0.01522948,0.00789696,0.
 00115663,-0.00088711,0.00039031,-0.13905313,0.19973213,-0.00000107,-0.
 00000043,-0.00000095,0.00000440,0.00001815,0.00000104,0.00000625,0.000
 00695,0.00000046,-0.00000999,-0.00000764,0.00000018,-0.00000936,-0.000
 01423,-0.00000101,0.00001866,-0.00000015,0.00000112,0.00000839,-0.0000
 0106,0.00000096,-0.00000657,0.00000207,-0.00000142,0.00000210,-0.00001
 265,-0.00000219,-0.00000296,0.00000262,-0.00000117,0.00000159,-0.00000
 093,0.00000154,0.00000072,0.00000088,0.00000095,-0.00001299,0.00000424
 ,-0.00000241,0.00000139,-0.00000591,-0.00000025,0.00000593,-0.00000060
 ,0.00000018,-0.00001631,0.00000811,0.00000063,-0.00000067,0.00000141,0
 .00000049,-0.00001134,0.00000403,-0.00000618,-0.00000067,0.00000152,0.
 00000086,0.00000588,-0.00003069,0.00000121,0.00000164,0.00000086,0.000
 00184,0.00000153,-0.00000154,0.00000185,-0.00000316,0.00000075,-0.0000
 0004,0.00000008,-0.00000202,-0.00000015,0.00000245,0.00000162,-0.00000
 026,-0.00000219,-0.00000178,-0.00000010,0.00000048,-0.00000027,0.00000
 030,-0.00000327,0.00000436,-0.00000039,0.00000058,0.00000014,0.0000003
 3,0.00000388,-0.00000290,0.00000040,-0.00000018,0.00000040,0.00000023,
 -0.00000048,-0.00000032,0.00000014,-0.00005299,0.00005856,-0.00000452,
 -0.00002725,0.00000491,0.00003210,-0.00001250,-0.00013771,-0.00015528,
 -0.00001100,0.00003944,-0.00005577,-0.00000759,-0.00000101,0.00000137,
 -0.00023155,0.00012845,0.00025356,-0.00003955,0.00001009,-0.00000627,-
 0.00000210,0.00000219,-0.00000093,0.00000150,-0.00000137,-0.00000034,0
 .00000110,0.00000076,0.00000019,-0.00000226,-0.00000246,0.00000111,0.0
 0000032,-0.00000028,0.00000025,-0.00000138,0.00000197,-0.00000052,-0.0
 0000028,0.00000031,0.00000013,0.00000178,0.00000075,-0.00000070,-0.000
 00079,-0.00000004,-0.00000009,-0.00000082,-0.00000044,0.00000018,-0.00
 000005,0.00000048,0.00000012,0.00000021,0.00000022,0.00000021,0.000000
 14,-0.00000021,-0.00000035,0.00000028,-0.00000013,0.00000007,-0.000000
 80,-0.00000029,0.,-0.00000010,-0.00000027,0.00000009,-0.00000019,0.000
 00011,0.00000014,-0.00000021,-0.00000007,0.00000014,-0.00141298,0.0005
 5487,0.00698539,0.00032719,-0.00014468,-0.00063206,-0.00262032,0.00345
 723,0.00202938,-0.00090812,0.00157520,0.00644928,0.00020455,-0.0001673
 9,-0.00100604,-0.05333779,0.05453966,-0.05740599,0.00088237,-0.0010310
 7,-0.00384615,-0.00274913,0.00123344,0.00252530,-0.00016607,0.00008765
 ,0.00012808,0.05929479,-0.05945601,0.04825106,-0.00000762,0.00000253,0
 .00000017,0.00001902,0.00004377,-0.00000009,0.00001653,0.00001396,0.00
 000008,-0.00002475,-0.00001879,-0.00000036,-0.00002919,-0.00003847,0.0
 0000017,0.00006598,-0.00000667,-0.00000001,0.00002990,-0.00000982,-0.0
 0000056,-0.00002516,0.00001139,0.00000046,0.00000161,-0.00002876,0.000
 00039,-0.00001167,0.00001427,0.00000054,0.00000446,-0.00000419,-0.0000
 0059,0.00000234,0.00000186,-0.00000019,-0.00004894,0.00001585,0.000000
 21,0.00001407,-0.00001831,-0.00000038,0.00002252,-0.00000340,0.0000011
 4,-0.00004400,-0.00000136,-0.00000163,0.00000042,0.00000283,0.00000005
 ,-0.00003249,0.00003804,0.00000185,-0.00000227,0.00000506,-0.00000083,
 0.00008060,-0.00004454,-0.00000694,0.00000483,0.00000308,-0.00000139,0
 .00000420,-0.00001009,0.00000137,-0.00000858,0.00000222,0.00000002,-0.
 00000021,-0.00000576,0.00000005,0.00000689,0.00000434,-0.00000012,-0.0
 0000594,-0.00000493,0.00000067,0.00000146,-0.00000096,-0.00000014,-0.0
 0000943,0.00001253,-0.00000026,0.00000160,0.00000077,0.00000001,0.0000
 1101,-0.00000888,0.00000115,-0.00000076,0.00000128,0.00000002,-0.00000
 124,-0.00000093,-0.00000025,-0.00001615,0.00002267,0.00004179,-0.00001
 719,-0.00002620,-0.00000821,-0.00001900,0.00003490,-0.00004921,-0.0000
 3379,-0.00006306,-0.00000848,-0.00000257,-0.00000804,-0.00001172,0.000
 08478,0.00004196,0.00022429,0.00000740,0.00002411,0.00000776,-0.000005
 77,0.00000663,-0.00000255,0.00000444,-0.00000387,-0.00000067,0.0000031
 5,0.00000218,0.00000022,-0.00000657,-0.00000693,0.00000378,0.00000095,
 -0.00000101,0.00000014,-0.00000431,0.00000582,-0.00000152,-0.00000088,
 0.00000071,-0.00000009,0.00000512,0.00000235,-0.00000139,-0.00000200,-
 0.00000047,-0.00000006,-0.00000241,-0.00000158,0.00000051,-0.00000015,
 0.00000133,0.00000052,0.00000042,0.00000071,0.00000031,0.00000047,-0.0
 0000061,-0.00000080,0.00000081,-0.00000022,-0.00000009,-0.00000229,-0.
 00000085,0.00000024,-0.00000022,-0.00000064,-0.00000002,-0.00000072,0.
 00000043,0.00000020,-0.00000064,-0.00000022,0.00000019,0.00048584,0.00
 049389,0.00015344,-0.00059942,0.00368963,-0.00213154,0.00177910,-0.001
 64202,-0.00073900,-0.01565364,-0.00859918,-0.00221611,-0.00085398,-0.0
 0046366,-0.00011013,-0.00391756,0.00034588,-0.00140552,-0.00030023,0.0
 0006361,-0.00011732,-0.31287580,-0.07360286,-0.04190805,0.00072589,0.0
 0032994,0.00086239,0.00058082,-0.00010656,0.00088685,0.33060094,-0.000
 00114,0.00000016,-0.00000017,0.00000397,0.00001558,-0.00000010,0.00000
 470,0.00000526,0.00000022,-0.00000767,-0.00000632,-0.00000020,-0.00000
 946,-0.00001305,-0.00000002,0.00002138,-0.00000097,-0.00000037,0.00000
 745,-0.00000116,0.00000021,-0.00000629,0.00000312,-0.00000039,0.000002
 09,-0.00001046,-0.00000041,-0.00000262,0.00000257,-0.00000014,0.000000
 89,-0.00000084,0.00000031,0.00000069,0.00000070,0.00000015,-0.00001786
 ,0.00000574,0.,0.00000764,-0.00000469,-0.00000027,0.00000862,0.0000012
 6,0.00000142,-0.00001478,-0.00000417,-0.00000406,0.00000016,0.00000049
 ,0.00000037,-0.00001658,0.00000753,-0.00000149,-0.00000073,0.00000130,
 0.00000020,0.00003863,-0.00000468,0.00001073,0.00000086,0.00000099,0.0
 0000056,0.00000031,-0.00000022,0.00000077,-0.00000242,0.00000060,0.000
 00003,-0.00000010,-0.00000173,0.00000004,0.00000206,0.00000140,-0.0000
 0010,-0.00000184,-0.00000143,0.00000013,0.00000041,-0.00000023,0.00000
 004,-0.00000286,0.00000382,-0.00000007,0.00000052,0.00000016,0.0000000
 6,0.00000332,-0.00000268,0.00000027,-0.00000016,0.00000035,0.00000005,
 -0.00000042,-0.00000029,-0.00000004,-0.00009852,0.00004344,-0.00000503
 ,0.00008385,0.00004277,0.00000835,-0.00003019,-0.00001071,0.00000614,-
 0.00005980,-0.00002872,-0.00006119,-0.00000439,-0.00000041,0.00000703,
 0.00002418,0.00009155,-0.00019379,0.00000870,0.00003682,0.00005215,-0.
 00000173,0.00000209,-0.00000082,0.00000136,-0.00000123,-0.00000022,0.0
 0000095,0.00000056,0.00000010,-0.00000201,-0.00000219,0.00000112,0.000
 00028,-0.00000029,0.00000011,-0.00000133,0.00000187,-0.00000047,-0.000
 00023,0.00000025,0.,0.00000170,0.00000060,-0.00000051,-0.00000070,-0.0
 0000010,0.00000005,-0.00000074,-0.00000037,0.00000011,-0.00000002,0.00
 000044,0.00000012,0.00000015,0.00000023,0.00000011,0.00000013,-0.00000
 021,-0.00000022,0.00000024,-0.00000009,-0.00000001,-0.00000073,-0.0000
 0028,0.00000007,-0.00000008,-0.00000022,0.,-0.00000018,0.00000012,0.00
 000007,-0.00000021,-0.00000006,0.00000007,0.00050617,-0.00113587,0.000
 18015,0.00273309,-0.00257163,0.00216806,-0.00070978,-0.00528975,0.0020
 0327,0.02171884,0.01021842,0.00298384,0.00109645,0.00033884,0.00019350
 ,-0.02991790,-0.00297032,-0.00495626,-0.00147020,-0.00029071,-0.000194
 63,-0.07362602,-0.07985014,-0.00692202,-0.00035374,0.00076765,-0.00086
 974,0.00059034,0.00091918,-0.00072779,0.07949332,0.07969036,-0.0000004
 2,0.00000006,-0.00000084,0.00000321,0.00001840,0.00000114,0.00000504,0
 .00000626,0.00000037,-0.00000897,-0.00000603,0.00000011,-0.00000929,-0
 .00001434,-0.00000008,0.00002165,-0.00000191,-0.00000116,0.00000725,-0
 .00000277,0.00000110,-0.00000614,0.00000340,-0.00000197,0.00000360,-0.
 00001236,-0.00000168,-0.00000277,0.00000371,-0.00000129,0.00000084,-0.
 00000103,0.00000169,0.00000066,0.00000070,0.00000083,-0.00001860,0.000
 00710,-0.00000042,0.00000846,-0.00000355,0.00000070,0.00000736,-0.0000
 0192,0.00000432,-0.00001619,-0.00000332,-0.00000803,-0.00000017,0.0000
 0041,0.00000077,-0.00001191,0.00001061,-0.00000101,-0.00000006,0.00000
 120,0.00000130,0.00004418,-0.00001969,0.00001449,-0.00000010,0.0000000
 5,0.00000224,-0.00000076,0.00000174,-0.00000385,-0.00000270,0.00000063
 ,-0.00000020,-0.00000009,-0.00000188,-0.00000011,0.00000225,0.00000155
 ,-0.00000029,-0.00000188,-0.00000160,-0.00000007,0.00000036,-0.0000003
 4,0.00000031,-0.00000304,0.00000411,-0.00000029,0.00000052,0.00000016,
 0.00000029,0.00000347,-0.00000284,0.00000039,-0.00000022,0.00000039,0.
 00000025,-0.00000043,-0.00000030,0.00000013,-0.00003337,0.00015476,0.0
 0004554,0.00019157,-0.00006781,-0.00007961,0.00015693,-0.00008633,0.00
 000829,-0.00024572,-0.00002496,-0.00001413,-0.00000978,-0.00000724,0.0
 0000330,0.00006161,-0.00016448,-0.00093458,-0.00001499,-0.00005517,0.0
 0005711,-0.00000191,0.00000200,-0.00000091,0.00000135,-0.00000132,-0.0
 0000033,0.00000099,0.00000079,0.00000018,-0.00000207,-0.00000221,0.000
 00104,0.00000031,-0.00000024,0.00000025,-0.00000131,0.00000178,-0.0000
 0056,-0.00000028,0.00000028,0.00000013,0.00000160,0.00000069,-0.000000
 52,-0.00000072,-0.00000005,-0.00000008,-0.00000075,-0.00000043,0.00000
 009,-0.00000005,0.00000044,0.00000007,0.00000018,0.00000020,0.00000020
 ,0.00000015,-0.00000019,-0.00000031,0.00000026,-0.00000011,0.00000008,
 -0.00000073,-0.00000026,-0.00000001,-0.00000008,-0.00000024,0.00000008
 ,-0.00000019,0.00000011,0.00000014,-0.00000018,-0.00000008,0.00000014,
 0.00018922,0.00027307,-0.00075457,-0.00208889,0.00218887,0.00622779,-0
 .00072916,0.00170521,0.00650237,-0.00722198,-0.00286440,0.00214356,-0.
 00042870,-0.00006690,0.00010280,0.00363078,0.00112472,0.00358096,0.000
 19208,0.00017120,0.00017158,-0.04198756,-0.00692357,-0.04296746,0.0009
 6152,-0.00077928,-0.00357595,0.00081949,-0.00088597,-0.00354129,0.0465
 3522,0.00632057,0.03301549||0.00000002,-0.00000001,0.,0.00000001,0.000
 00001,0.,-0.00000002,-0.00000002,0.,0.00000001,0.,0.,-0.00000001,0.,0.
 ,0.00000002,0.00000003,0.,-0.00000002,0.,0.,-0.00000002,0.,0.,0.000000
 02,0.,0.,-0.00000002,0.,0.,-0.00000003,0.,0.,0.00000003,0.,0.,-0.00000
 002,0.00000003,0.,0.00000004,0.00000001,0.,0.,0.00000002,0.00000001,-0
 .00000002,0.00000004,-0.00000001,0.,0.00000001,0.,-0.00000003,0.000000
 04,0.00000001,0.,0.00000003,0.,0.00000004,0.00000002,-0.00000002,0.,0.
 00000003,0.00000002,-0.00000003,0.00000005,0.,0.00000002,-0.00000003,0
 .,-0.00000003,-0.00000001,-0.00000001,0.,-0.00000002,0.00000001,0.0000
 0001,-0.00000003,-0.00000001,0.,-0.00000002,0.,0.00000004,-0.00000004,
 0.00000002,0.,-0.00000003,0.,-0.00000006,-0.00000003,-0.00000004,-0.00
 000001,-0.00000003,0.00000002,0.00000003,-0.00000005,0.,-0.00000005,0.
 00000007,0.00000001,0.00000003,0.00000004,0.00000001,0.,0.00000003,0.,
 -0.00000001,0.00000005,0.,0.00000003,0.00000005,-0.00000001,0.,0.00000
 008,0.00000002,0.00000002,0.00000006,0.,0.00000007,-0.00000009,0.00000
 003,-0.00000003,-0.00000003,0.00000001,-0.00000003,-0.00000004,0.,0.,-
 0.00000004,0.,-0.00000002,-0.00000005,-0.00000002,0.,-0.00000007,0.,-0
 .00000002,-0.00000006,0.,0.00000001,-0.00000007,0.,0.,-0.00000008,0.,0
 .,-0.00000007,0.,0.00000002,-0.00000008,0.,0.00000002,-0.00000007,0.,-
 0.00000001,-0.00000009,0.,0.,-0.00000007,0.,0.,-0.00000009,0.,0.000000
 02,-0.00000009,0.,0.,-0.00000009,0.,0.,-0.00000009,0.,-0.00000002,0.00
 000008,-0.00000003,0.00000001,0.00000007,0.,0.,0.00000007,0.,-0.000000
 02,0.00000009,0.,0.,0.00000007,0.,0.,0.00000009,0.,0.,0.00000007,0.,0.
 ,0.00000008,0.,-0.00000002,0.00000008,0.,0.,0.00000009,0.,0.,0.0000000
 9,0.|||@


 "ANNA, YOU MUSN'T SPEAK OF OXIDIZED MURIATIC ACID
 ANYMORE, FROM NOW ON YOU MUST SAY CHLORINE."
   -- JENS JACOB BERZELIUS, IN 1820, TO HIS COOK, WHO HAD
 COMPLAINED OF THE SMELL OF THE FLASK SHE WAS CLEANING.
 Job cpu time:  1 days  3 hours 23 minutes 20.0 seconds.
 File lengths (MBytes):  RWF=  11400 Int=      0 D2E=      0 Chk=     75 Scr=      1
 Normal termination of Gaussian 09 at Mon Aug 14 12:59:36 2023.
