 Entering Gaussian System, Link 0=g16
 Initial command:
 /home/aderezen/G16/AVX2//g16/l1.exe "/lustre/scratch/natrosa/12384534/Gau-143904.inp" -scrdir="/lustre/scratch/natrosa/12384534/"
 Entering Link 1 = /home/aderezen/G16/AVX2//g16/l1.exe PID=    143905.
  
 Copyright (c) 1988-2019, Gaussian, Inc.  All Rights Reserved.
  
 This is part of the Gaussian(R) 16 program.  It is based on
 the Gaussian(R) 09 system (copyright 2009, Gaussian, Inc.),
 the Gaussian(R) 03 system (copyright 2003, Gaussian, Inc.),
 the Gaussian(R) 98 system (copyright 1998, Gaussian, Inc.),
 the Gaussian(R) 94 system (copyright 1995, Gaussian, Inc.),
 the Gaussian 92(TM) system (copyright 1992, Gaussian, Inc.),
 the Gaussian 90(TM) system (copyright 1990, Gaussian, Inc.),
 the Gaussian 88(TM) system (copyright 1988, Gaussian, Inc.),
 the Gaussian 86(TM) system (copyright 1986, Carnegie Mellon
 University), and the Gaussian 82(TM) system (copyright 1983,
 Carnegie Mellon University). Gaussian is a federally registered
 trademark of Gaussian, Inc.
  
 This software contains proprietary and confidential information,
 including trade secrets, belonging to Gaussian, Inc.
  
 This software is provided under written license and may be
 used, copied, transmitted, or stored only in accord with that
 written license.
  
 The following legend is applicable only to US Government
 contracts under FAR:
  
                    RESTRICTED RIGHTS LEGEND
  
 Use, reproduction and disclosure by the US Government is
 subject to restrictions as set forth in subparagraphs (a)
 and (c) of the Commercial Computer Software - Restricted
 Rights clause in FAR 52.227-19.
  
 Gaussian, Inc.
 340 Quinnipiac St., Bldg. 40, Wallingford CT 06492
  
  
 ---------------------------------------------------------------
 Warning -- This program may not be used in any manner that
 competes with the business of Gaussian, Inc. or will provide
 assistance to any competitor of Gaussian, Inc.  The licensee
 of this program is prohibited from giving any competitor of
 Gaussian, Inc. access to this program.  By using this program,
 the user acknowledges that Gaussian, Inc. is engaged in the
 business of creating and licensing software in the field of
 computational chemistry and represents and warrants to the
 licensee that it is not a competitor of Gaussian, Inc. and that
 it will not use this program in any manner prohibited above.
 ---------------------------------------------------------------
  

 Cite this work as:
 Gaussian 16, Revision C.01,
 M. J. Frisch, G. W. Trucks, H. B. Schlegel, G. E. Scuseria, 
 M. A. Robb, J. R. Cheeseman, G. Scalmani, V. Barone, 
 G. A. Petersson, H. Nakatsuji, X. Li, M. Caricato, A. V. Marenich, 
 J. Bloino, B. G. Janesko, R. Gomperts, B. Mennucci, H. P. Hratchian, 
 J. V. Ortiz, A. F. Izmaylov, J. L. Sonnenberg, D. Williams-Young, 
 F. Ding, F. Lipparini, F. Egidi, J. Goings, B. Peng, A. Petrone, 
 T. Henderson, D. Ranasinghe, V. G. Zakrzewski, J. Gao, N. Rega, 
 G. Zheng, W. Liang, M. Hada, M. Ehara, K. Toyota, R. Fukuda, 
 J. Hasegawa, M. Ishida, T. Nakajima, Y. Honda, O. Kitao, H. Nakai, 
 T. Vreven, K. Throssell, J. A. Montgomery, Jr., J. E. Peralta, 
 F. Ogliaro, M. J. Bearpark, J. J. Heyd, E. N. Brothers, K. N. Kudin, 
 V. N. Staroverov, T. A. Keith, R. Kobayashi, J. Normand, 
 K. Raghavachari, A. P. Rendell, J. C. Burant, S. S. Iyengar, 
 J. Tomasi, M. Cossi, J. M. Millam, M. Klene, C. Adamo, R. Cammi, 
 J. W. Ochterski, R. L. Martin, K. Morokuma, O. Farkas, 
 J. B. Foresman, and D. J. Fox, Gaussian, Inc., Wallingford CT, 2019.
 
 ******************************************
 Gaussian 16:  ES64L-G16RevC.01  3-Jul-2019
                21-Nov-2023 
 ******************************************
 %chk=SUB-11-ANION.chk
 %nprocshared=24
 Will use up to   24 processors via shared memory.
 %mem=5500MB
 ----------------------------------------------------
 # opt=tight freq b3lyp/6-31+g(d,p) geom=connectivity
 ----------------------------------------------------
 1/7=10,18=20,19=15,26=3,38=1,57=2/1,3;
 2/9=110,12=2,17=6,18=5,40=1/2;
 3/5=1,6=6,7=111,11=2,25=1,30=1,71=1,74=-5/1,2,3;
 4//1;
 5/5=2,38=5/2;
 6/7=2,8=2,9=2,10=2,28=1/1;
 7//1,2,3,16;
 1/7=10,18=20,19=15,26=3/3(2);
 2/9=110/2;
 99//99;
 2/9=110/2;
 3/5=1,6=6,7=111,11=2,25=1,30=1,71=1,74=-5/1,2,3;
 4/5=5,16=3,69=1/1;
 5/5=2,38=5/2;
 7//1,2,3,16;
 1/7=10,18=20,19=15,26=3/3(-5);
 2/9=110/2;
 6/7=2,8=2,9=2,10=2,19=2,28=1/1;
 99/9=1/99;
 -----
 teste
 -----
 Symbolic Z-matrix:
 Charge = -1 Multiplicity = 2
 N                     1.15938   1.78738  -0.00442 
 C                    -0.25794   1.79636  -0.00358 
 C                     1.70456   0.51792  -0.00436 
 C                     0.59696  -0.36859  -0.00308 
 C                    -0.59696   0.36859  -0.00308 
 C                    -1.70456  -0.51792  -0.00436 
 C                     0.25794  -1.79636  -0.00358 
 N                    -1.15938  -1.78738  -0.00441 
 O                    -0.92998   2.81568  -0.00326 
 O                     0.92998  -2.81568  -0.00325 
 H                    -1.67521  -2.65543  -0.00365 
 H                     1.67521   2.65543  -0.00366 
 C                    -3.10835  -0.25457  -0.00692 
 C                    -3.58967   1.08382  -0.00603 
 C                    -4.06779  -1.30289  -0.01136 
 C                    -4.94231   1.34867  -0.00971 
 H                    -2.88425   1.90878  -0.00078 
 C                    -5.4181   -1.03149  -0.01683 
 H                    -3.75714  -2.34277  -0.01335 
 C                    -5.9059    0.30459  -0.01697 
 H                    -5.26584   2.38289  -0.00288 
 H                    -6.11685  -1.86156  -0.02512 
 C                     3.10835   0.25457  -0.00692 
 C                     3.58967  -1.08382  -0.00603 
 C                     4.06779   1.30289  -0.01136 
 C                     4.94231  -1.34867  -0.0097 
 H                     2.88425  -1.90878  -0.00077 
 C                     5.4181    1.03149  -0.01684 
 H                     3.75714   2.34277  -0.01336 
 C                     5.9059   -0.30459  -0.01697 
 H                     5.26584  -2.38289  -0.00287 
 H                     6.11685   1.86156  -0.02513 
 C                    -7.31782   0.59361  -0.02405 
 C                    -7.94666   1.83788  -0.08271 
 S                    -8.5309   -0.67737   0.05022 
 C                    -9.3474    1.76845  -0.07531 
 H                    -7.40634   2.77429  -0.14747 
 C                    -9.84514   0.46877  -0.01243 
 H                    -9.98658   2.63972  -0.14611 
 C                     7.31782  -0.59361  -0.02404 
 C                     7.94666  -1.83788  -0.08271 
 S                     8.5309    0.67737   0.05023 
 C                     9.3474   -1.76845  -0.07532 
 H                     7.40634  -2.77429  -0.14747 
 C                     9.84514  -0.46877  -0.01243 
 H                     9.98658  -2.63972  -0.14611 
 C                     11.24027  -0.03718   0.008 
 C                     11.61294   1.26889  -0.37203 
 C                     12.25178  -0.93466   0.4122 
 C                     12.94841   1.66168  -0.35089 
 H                     10.85703   1.97244  -0.70849 
 C                     13.58605  -0.53792   0.42913 
 H                     11.98951  -1.93631   0.73628 
 C                     13.94078   0.76046   0.04815 
 H                     13.21678   2.66892  -0.65377 
 H                     14.35019  -1.23964   0.7486 
 H                     14.98186   1.06746   0.06279 
 C                    -11.24026   0.03718   0.008 
 C                    -11.61294  -1.26889  -0.37204 
 C                    -12.25178   0.93466   0.41221 
 C                    -12.94841  -1.66168  -0.3509 
 H                    -10.85703  -1.97244  -0.7085 
 C                    -13.58605   0.53792   0.42913 
 H                    -11.98951   1.93631   0.7363 
 C                    -13.94078  -0.76046   0.04815 
 H                    -13.21678  -2.66892  -0.65378 
 H                    -14.35019   1.23964   0.74861 
 H                    -14.98186  -1.06746   0.06279 
 

 GradGradGradGradGradGradGradGradGradGradGradGradGradGradGradGradGradGrad
 Berny optimization.
 Initialization pass.
                           ----------------------------
                           !    Initial Parameters    !
                           ! (Angstroms and Degrees)  !
 --------------------------                            --------------------------
 ! Name  Definition              Value          Derivative Info.                !
 --------------------------------------------------------------------------------
 ! R1    R(1,2)                  1.4173         estimate D2E/DX2                !
 ! R2    R(1,3)                  1.3816         estimate D2E/DX2                !
 ! R3    R(1,12)                 1.0097         estimate D2E/DX2                !
 ! R4    R(2,5)                  1.4675         estimate D2E/DX2                !
 ! R5    R(2,9)                  1.2209         estimate D2E/DX2                !
 ! R6    R(3,4)                  1.4187         estimate D2E/DX2                !
 ! R7    R(3,23)                 1.4283         estimate D2E/DX2                !
 ! R8    R(4,5)                  1.4032         estimate D2E/DX2                !
 ! R9    R(4,7)                  1.4675         estimate D2E/DX2                !
 ! R10   R(5,6)                  1.4187         estimate D2E/DX2                !
 ! R11   R(6,8)                  1.3816         estimate D2E/DX2                !
 ! R12   R(6,13)                 1.4283         estimate D2E/DX2                !
 ! R13   R(7,8)                  1.4173         estimate D2E/DX2                !
 ! R14   R(7,10)                 1.2209         estimate D2E/DX2                !
 ! R15   R(8,11)                 1.0097         estimate D2E/DX2                !
 ! R16   R(13,14)                1.4223         estimate D2E/DX2                !
 ! R17   R(13,15)                1.4211         estimate D2E/DX2                !
 ! R18   R(14,16)                1.3783         estimate D2E/DX2                !
 ! R19   R(14,17)                1.0854         estimate D2E/DX2                !
 ! R20   R(15,18)                1.3773         estimate D2E/DX2                !
 ! R21   R(15,19)                1.0853         estimate D2E/DX2                !
 ! R22   R(16,20)                1.4208         estimate D2E/DX2                !
 ! R23   R(16,21)                1.0837         estimate D2E/DX2                !
 ! R24   R(18,20)                1.4223         estimate D2E/DX2                !
 ! R25   R(18,22)                1.085          estimate D2E/DX2                !
 ! R26   R(20,33)                1.4412         estimate D2E/DX2                !
 ! R27   R(23,24)                1.4223         estimate D2E/DX2                !
 ! R28   R(23,25)                1.4211         estimate D2E/DX2                !
 ! R29   R(24,26)                1.3783         estimate D2E/DX2                !
 ! R30   R(24,27)                1.0854         estimate D2E/DX2                !
 ! R31   R(25,28)                1.3773         estimate D2E/DX2                !
 ! R32   R(25,29)                1.0853         estimate D2E/DX2                !
 ! R33   R(26,30)                1.4208         estimate D2E/DX2                !
 ! R34   R(26,31)                1.0837         estimate D2E/DX2                !
 ! R35   R(28,30)                1.4223         estimate D2E/DX2                !
 ! R36   R(28,32)                1.085          estimate D2E/DX2                !
 ! R37   R(30,40)                1.4412         estimate D2E/DX2                !
 ! R38   R(33,34)                1.3954         estimate D2E/DX2                !
 ! R39   R(33,35)                1.7585         estimate D2E/DX2                !
 ! R40   R(34,36)                1.4025         estimate D2E/DX2                !
 ! R41   R(34,37)                1.0831         estimate D2E/DX2                !
 ! R42   R(35,38)                1.7449         estimate D2E/DX2                !
 ! R43   R(36,38)                1.3932         estimate D2E/DX2                !
 ! R44   R(36,39)                1.0829         estimate D2E/DX2                !
 ! R45   R(38,58)                1.4605         estimate D2E/DX2                !
 ! R46   R(40,41)                1.3954         estimate D2E/DX2                !
 ! R47   R(40,42)                1.7585         estimate D2E/DX2                !
 ! R48   R(41,43)                1.4025         estimate D2E/DX2                !
 ! R49   R(41,44)                1.0831         estimate D2E/DX2                !
 ! R50   R(42,45)                1.7449         estimate D2E/DX2                !
 ! R51   R(43,45)                1.3932         estimate D2E/DX2                !
 ! R52   R(43,46)                1.0829         estimate D2E/DX2                !
 ! R53   R(45,47)                1.4605         estimate D2E/DX2                !
 ! R54   R(47,48)                1.4104         estimate D2E/DX2                !
 ! R55   R(47,49)                1.4114         estimate D2E/DX2                !
 ! R56   R(48,50)                1.3922         estimate D2E/DX2                !
 ! R57   R(48,51)                1.0861         estimate D2E/DX2                !
 ! R58   R(49,52)                1.3921         estimate D2E/DX2                !
 ! R59   R(49,53)                1.085          estimate D2E/DX2                !
 ! R60   R(50,54)                1.3987         estimate D2E/DX2                !
 ! R61   R(50,55)                1.0855         estimate D2E/DX2                !
 ! R62   R(52,54)                1.3988         estimate D2E/DX2                !
 ! R63   R(52,56)                1.0855         estimate D2E/DX2                !
 ! R64   R(54,57)                1.0855         estimate D2E/DX2                !
 ! R65   R(58,59)                1.4104         estimate D2E/DX2                !
 ! R66   R(58,60)                1.4114         estimate D2E/DX2                !
 ! R67   R(59,61)                1.3922         estimate D2E/DX2                !
 ! R68   R(59,62)                1.0861         estimate D2E/DX2                !
 ! R69   R(60,63)                1.3921         estimate D2E/DX2                !
 ! R70   R(60,64)                1.085          estimate D2E/DX2                !
 ! R71   R(61,65)                1.3987         estimate D2E/DX2                !
 ! R72   R(61,66)                1.0855         estimate D2E/DX2                !
 ! R73   R(63,65)                1.3988         estimate D2E/DX2                !
 ! R74   R(63,67)                1.0855         estimate D2E/DX2                !
 ! R75   R(65,68)                1.0855         estimate D2E/DX2                !
 ! A1    A(2,1,3)              113.6045         estimate D2E/DX2                !
 ! A2    A(2,1,12)             120.3577         estimate D2E/DX2                !
 ! A3    A(3,1,12)             126.0377         estimate D2E/DX2                !
 ! A4    A(1,2,5)              102.9945         estimate D2E/DX2                !
 ! A5    A(1,2,9)              123.7597         estimate D2E/DX2                !
 ! A6    A(5,2,9)              133.2458         estimate D2E/DX2                !
 ! A7    A(1,3,4)              105.4318         estimate D2E/DX2                !
 ! A8    A(1,3,23)             123.8669         estimate D2E/DX2                !
 ! A9    A(4,3,23)             130.7013         estimate D2E/DX2                !
 ! A10   A(3,4,5)              109.6333         estimate D2E/DX2                !
 ! A11   A(3,4,7)              142.0307         estimate D2E/DX2                !
 ! A12   A(5,4,7)              108.336          estimate D2E/DX2                !
 ! A13   A(2,5,4)              108.336          estimate D2E/DX2                !
 ! A14   A(2,5,6)              142.0307         estimate D2E/DX2                !
 ! A15   A(4,5,6)              109.6333         estimate D2E/DX2                !
 ! A16   A(5,6,8)              105.4318         estimate D2E/DX2                !
 ! A17   A(5,6,13)             130.7013         estimate D2E/DX2                !
 ! A18   A(8,6,13)             123.8669         estimate D2E/DX2                !
 ! A19   A(4,7,8)              102.9945         estimate D2E/DX2                !
 ! A20   A(4,7,10)             133.2458         estimate D2E/DX2                !
 ! A21   A(8,7,10)             123.7597         estimate D2E/DX2                !
 ! A22   A(6,8,7)              113.6045         estimate D2E/DX2                !
 ! A23   A(6,8,11)             126.0378         estimate D2E/DX2                !
 ! A24   A(7,8,11)             120.3577         estimate D2E/DX2                !
 ! A25   A(6,13,14)            120.4049         estimate D2E/DX2                !
 ! A26   A(6,13,15)            121.84           estimate D2E/DX2                !
 ! A27   A(14,13,15)           117.7552         estimate D2E/DX2                !
 ! A28   A(13,14,16)           120.8576         estimate D2E/DX2                !
 ! A29   A(13,14,17)           119.6868         estimate D2E/DX2                !
 ! A30   A(16,14,17)           119.4555         estimate D2E/DX2                !
 ! A31   A(13,15,18)           121.1012         estimate D2E/DX2                !
 ! A32   A(13,15,19)           120.9021         estimate D2E/DX2                !
 ! A33   A(18,15,19)           117.9965         estimate D2E/DX2                !
 ! A34   A(14,16,20)           121.6263         estimate D2E/DX2                !
 ! A35   A(14,16,21)           118.4473         estimate D2E/DX2                !
 ! A36   A(20,16,21)           119.926          estimate D2E/DX2                !
 ! A37   A(15,18,20)           121.421          estimate D2E/DX2                !
 ! A38   A(15,18,22)           118.7271         estimate D2E/DX2                !
 ! A39   A(20,18,22)           119.8515         estimate D2E/DX2                !
 ! A40   A(16,20,18)           117.2385         estimate D2E/DX2                !
 ! A41   A(16,20,33)           121.1361         estimate D2E/DX2                !
 ! A42   A(18,20,33)           121.6254         estimate D2E/DX2                !
 ! A43   A(3,23,24)            120.4048         estimate D2E/DX2                !
 ! A44   A(3,23,25)            121.84           estimate D2E/DX2                !
 ! A45   A(24,23,25)           117.7551         estimate D2E/DX2                !
 ! A46   A(23,24,26)           120.8577         estimate D2E/DX2                !
 ! A47   A(23,24,27)           119.6867         estimate D2E/DX2                !
 ! A48   A(26,24,27)           119.4555         estimate D2E/DX2                !
 ! A49   A(23,25,28)           121.1012         estimate D2E/DX2                !
 ! A50   A(23,25,29)           120.9021         estimate D2E/DX2                !
 ! A51   A(28,25,29)           117.9965         estimate D2E/DX2                !
 ! A52   A(24,26,30)           121.6262         estimate D2E/DX2                !
 ! A53   A(24,26,31)           118.4474         estimate D2E/DX2                !
 ! A54   A(30,26,31)           119.9259         estimate D2E/DX2                !
 ! A55   A(25,28,30)           121.421          estimate D2E/DX2                !
 ! A56   A(25,28,32)           118.7271         estimate D2E/DX2                !
 ! A57   A(30,28,32)           119.8515         estimate D2E/DX2                !
 ! A58   A(26,30,28)           117.2385         estimate D2E/DX2                !
 ! A59   A(26,30,40)           121.1361         estimate D2E/DX2                !
 ! A60   A(28,30,40)           121.6254         estimate D2E/DX2                !
 ! A61   A(20,33,34)           128.3551         estimate D2E/DX2                !
 ! A62   A(20,33,35)           122.0494         estimate D2E/DX2                !
 ! A63   A(34,33,35)           109.5954         estimate D2E/DX2                !
 ! A64   A(33,34,36)           113.9375         estimate D2E/DX2                !
 ! A65   A(33,34,37)           123.2745         estimate D2E/DX2                !
 ! A66   A(36,34,37)           122.778          estimate D2E/DX2                !
 ! A67   A(33,35,38)            92.4823         estimate D2E/DX2                !
 ! A68   A(34,36,38)           113.7815         estimate D2E/DX2                !
 ! A69   A(34,36,39)           123.3224         estimate D2E/DX2                !
 ! A70   A(38,36,39)           122.8645         estimate D2E/DX2                !
 ! A71   A(35,38,36)           110.2002         estimate D2E/DX2                !
 ! A72   A(35,38,58)           121.6587         estimate D2E/DX2                !
 ! A73   A(36,38,58)           128.1407         estimate D2E/DX2                !
 ! A74   A(30,40,41)           128.3551         estimate D2E/DX2                !
 ! A75   A(30,40,42)           122.0494         estimate D2E/DX2                !
 ! A76   A(41,40,42)           109.5953         estimate D2E/DX2                !
 ! A77   A(40,41,43)           113.9375         estimate D2E/DX2                !
 ! A78   A(40,41,44)           123.2745         estimate D2E/DX2                !
 ! A79   A(43,41,44)           122.778          estimate D2E/DX2                !
 ! A80   A(40,42,45)            92.4823         estimate D2E/DX2                !
 ! A81   A(41,43,45)           113.7815         estimate D2E/DX2                !
 ! A82   A(41,43,46)           123.3224         estimate D2E/DX2                !
 ! A83   A(45,43,46)           122.8645         estimate D2E/DX2                !
 ! A84   A(42,45,43)           110.2002         estimate D2E/DX2                !
 ! A85   A(42,45,47)           121.6586         estimate D2E/DX2                !
 ! A86   A(43,45,47)           128.1407         estimate D2E/DX2                !
 ! A87   A(45,47,48)           121.4864         estimate D2E/DX2                !
 ! A88   A(45,47,49)           120.0465         estimate D2E/DX2                !
 ! A89   A(48,47,49)           118.4671         estimate D2E/DX2                !
 ! A90   A(47,48,50)           120.7076         estimate D2E/DX2                !
 ! A91   A(47,48,51)           119.9635         estimate D2E/DX2                !
 ! A92   A(50,48,51)           119.3124         estimate D2E/DX2                !
 ! A93   A(47,49,52)           120.6085         estimate D2E/DX2                !
 ! A94   A(47,49,53)           119.9574         estimate D2E/DX2                !
 ! A95   A(52,49,53)           119.4177         estimate D2E/DX2                !
 ! A96   A(48,50,54)           120.2082         estimate D2E/DX2                !
 ! A97   A(48,50,55)           119.6519         estimate D2E/DX2                !
 ! A98   A(54,50,55)           120.1379         estimate D2E/DX2                !
 ! A99   A(49,52,54)           120.2825         estimate D2E/DX2                !
 ! A100  A(49,52,56)           119.6066         estimate D2E/DX2                !
 ! A101  A(54,52,56)           120.1085         estimate D2E/DX2                !
 ! A102  A(50,54,52)           119.7256         estimate D2E/DX2                !
 ! A103  A(50,54,57)           120.1388         estimate D2E/DX2                !
 ! A104  A(52,54,57)           120.1356         estimate D2E/DX2                !
 ! A105  A(38,58,59)           121.4864         estimate D2E/DX2                !
 ! A106  A(38,58,60)           120.0465         estimate D2E/DX2                !
 ! A107  A(59,58,60)           118.467          estimate D2E/DX2                !
 ! A108  A(58,59,61)           120.7076         estimate D2E/DX2                !
 ! A109  A(58,59,62)           119.9634         estimate D2E/DX2                !
 ! A110  A(61,59,62)           119.3124         estimate D2E/DX2                !
 ! A111  A(58,60,63)           120.6085         estimate D2E/DX2                !
 ! A112  A(58,60,64)           119.9574         estimate D2E/DX2                !
 ! A113  A(63,60,64)           119.4177         estimate D2E/DX2                !
 ! A114  A(59,61,65)           120.2082         estimate D2E/DX2                !
 ! A115  A(59,61,66)           119.6519         estimate D2E/DX2                !
 ! A116  A(65,61,66)           120.1379         estimate D2E/DX2                !
 ! A117  A(60,63,65)           120.2825         estimate D2E/DX2                !
 ! A118  A(60,63,67)           119.6066         estimate D2E/DX2                !
 ! A119  A(65,63,67)           120.1086         estimate D2E/DX2                !
 ! A120  A(61,65,63)           119.7257         estimate D2E/DX2                !
 ! A121  A(61,65,68)           120.1387         estimate D2E/DX2                !
 ! A122  A(63,65,68)           120.1356         estimate D2E/DX2                !
 ! D1    D(3,1,2,5)             -0.0047         estimate D2E/DX2                !
 ! D2    D(3,1,2,9)            179.987          estimate D2E/DX2                !
 ! D3    D(12,1,2,5)          -179.9185         estimate D2E/DX2                !
 ! D4    D(12,1,2,9)             0.0732         estimate D2E/DX2                !
 ! D5    D(2,1,3,4)             -0.0155         estimate D2E/DX2                !
 ! D6    D(2,1,3,23)           179.9125         estimate D2E/DX2                !
 ! D7    D(12,1,3,4)           179.8925         estimate D2E/DX2                !
 ! D8    D(12,1,3,23)           -0.1795         estimate D2E/DX2                !
 ! D9    D(1,2,5,4)              0.0235         estimate D2E/DX2                !
 ! D10   D(1,2,5,6)           -179.8608         estimate D2E/DX2                !
 ! D11   D(9,2,5,4)           -179.967          estimate D2E/DX2                !
 ! D12   D(9,2,5,6)              0.1487         estimate D2E/DX2                !
 ! D13   D(1,3,4,5)              0.0305         estimate D2E/DX2                !
 ! D14   D(1,3,4,7)            179.9139         estimate D2E/DX2                !
 ! D15   D(23,3,4,5)          -179.8906         estimate D2E/DX2                !
 ! D16   D(23,3,4,7)            -0.0072         estimate D2E/DX2                !
 ! D17   D(1,3,23,24)          179.9698         estimate D2E/DX2                !
 ! D18   D(1,3,23,25)           -0.0755         estimate D2E/DX2                !
 ! D19   D(4,3,23,24)           -0.1218         estimate D2E/DX2                !
 ! D20   D(4,3,23,25)          179.8329         estimate D2E/DX2                !
 ! D21   D(3,4,5,2)             -0.0343         estimate D2E/DX2                !
 ! D22   D(3,4,5,6)            179.8901         estimate D2E/DX2                !
 ! D23   D(7,4,5,2)           -179.9587         estimate D2E/DX2                !
 ! D24   D(7,4,5,6)             -0.0343         estimate D2E/DX2                !
 ! D25   D(3,4,7,8)           -179.8608         estimate D2E/DX2                !
 ! D26   D(3,4,7,10)             0.1486         estimate D2E/DX2                !
 ! D27   D(5,4,7,8)              0.0235         estimate D2E/DX2                !
 ! D28   D(5,4,7,10)          -179.967          estimate D2E/DX2                !
 ! D29   D(2,5,6,8)            179.9139         estimate D2E/DX2                !
 ! D30   D(2,5,6,13)            -0.0072         estimate D2E/DX2                !
 ! D31   D(4,5,6,8)              0.0306         estimate D2E/DX2                !
 ! D32   D(4,5,6,13)          -179.8906         estimate D2E/DX2                !
 ! D33   D(5,6,8,7)             -0.0155         estimate D2E/DX2                !
 ! D34   D(5,6,8,11)           179.8926         estimate D2E/DX2                !
 ! D35   D(13,6,8,7)           179.9125         estimate D2E/DX2                !
 ! D36   D(13,6,8,11)           -0.1794         estimate D2E/DX2                !
 ! D37   D(5,6,13,14)           -0.1219         estimate D2E/DX2                !
 ! D38   D(5,6,13,15)          179.8329         estimate D2E/DX2                !
 ! D39   D(8,6,13,14)          179.9697         estimate D2E/DX2                !
 ! D40   D(8,6,13,15)           -0.0755         estimate D2E/DX2                !
 ! D41   D(4,7,8,6)             -0.0047         estimate D2E/DX2                !
 ! D42   D(4,7,8,11)          -179.9185         estimate D2E/DX2                !
 ! D43   D(10,7,8,6)           179.987          estimate D2E/DX2                !
 ! D44   D(10,7,8,11)            0.0732         estimate D2E/DX2                !
 ! D45   D(6,13,14,16)         179.9408         estimate D2E/DX2                !
 ! D46   D(6,13,14,17)          -0.1586         estimate D2E/DX2                !
 ! D47   D(15,13,14,16)         -0.0158         estimate D2E/DX2                !
 ! D48   D(15,13,14,17)        179.8848         estimate D2E/DX2                !
 ! D49   D(6,13,15,18)        -179.8518         estimate D2E/DX2                !
 ! D50   D(6,13,15,19)          -0.0254         estimate D2E/DX2                !
 ! D51   D(14,13,15,18)          0.1042         estimate D2E/DX2                !
 ! D52   D(14,13,15,19)        179.9306         estimate D2E/DX2                !
 ! D53   D(13,14,16,20)         -0.117          estimate D2E/DX2                !
 ! D54   D(13,14,16,21)        179.6397         estimate D2E/DX2                !
 ! D55   D(17,14,16,20)        179.9822         estimate D2E/DX2                !
 ! D56   D(17,14,16,21)         -0.2611         estimate D2E/DX2                !
 ! D57   D(13,15,18,20)         -0.0611         estimate D2E/DX2                !
 ! D58   D(13,15,18,22)        179.6976         estimate D2E/DX2                !
 ! D59   D(19,15,18,20)       -179.8925         estimate D2E/DX2                !
 ! D60   D(19,15,18,22)         -0.1338         estimate D2E/DX2                !
 ! D61   D(14,16,20,18)          0.1578         estimate D2E/DX2                !
 ! D62   D(14,16,20,33)       -179.8473         estimate D2E/DX2                !
 ! D63   D(21,16,20,18)       -179.5953         estimate D2E/DX2                !
 ! D64   D(21,16,20,33)          0.3996         estimate D2E/DX2                !
 ! D65   D(15,18,20,16)         -0.0686         estimate D2E/DX2                !
 ! D66   D(15,18,20,33)        179.9365         estimate D2E/DX2                !
 ! D67   D(22,18,20,16)       -179.8246         estimate D2E/DX2                !
 ! D68   D(22,18,20,33)          0.1805         estimate D2E/DX2                !
 ! D69   D(16,20,33,34)          3.0224         estimate D2E/DX2                !
 ! D70   D(16,20,33,35)       -176.7955         estimate D2E/DX2                !
 ! D71   D(18,20,33,34)       -176.9829         estimate D2E/DX2                !
 ! D72   D(18,20,33,35)          3.1992         estimate D2E/DX2                !
 ! D73   D(3,23,24,26)         179.9408         estimate D2E/DX2                !
 ! D74   D(3,23,24,27)          -0.1588         estimate D2E/DX2                !
 ! D75   D(25,23,24,26)         -0.0157         estimate D2E/DX2                !
 ! D76   D(25,23,24,27)        179.8847         estimate D2E/DX2                !
 ! D77   D(3,23,25,28)        -179.8517         estimate D2E/DX2                !
 ! D78   D(3,23,25,29)          -0.0254         estimate D2E/DX2                !
 ! D79   D(24,23,25,28)          0.1042         estimate D2E/DX2                !
 ! D80   D(24,23,25,29)        179.9305         estimate D2E/DX2                !
 ! D81   D(23,24,26,30)         -0.1171         estimate D2E/DX2                !
 ! D82   D(23,24,26,31)        179.6396         estimate D2E/DX2                !
 ! D83   D(27,24,26,30)        179.9823         estimate D2E/DX2                !
 ! D84   D(27,24,26,31)         -0.2611         estimate D2E/DX2                !
 ! D85   D(23,25,28,30)         -0.0612         estimate D2E/DX2                !
 ! D86   D(23,25,28,32)        179.6976         estimate D2E/DX2                !
 ! D87   D(29,25,28,30)       -179.8924         estimate D2E/DX2                !
 ! D88   D(29,25,28,32)         -0.1336         estimate D2E/DX2                !
 ! D89   D(24,26,30,28)          0.1578         estimate D2E/DX2                !
 ! D90   D(24,26,30,40)       -179.8472         estimate D2E/DX2                !
 ! D91   D(31,26,30,28)       -179.5953         estimate D2E/DX2                !
 ! D92   D(31,26,30,40)          0.3997         estimate D2E/DX2                !
 ! D93   D(25,28,30,26)         -0.0685         estimate D2E/DX2                !
 ! D94   D(25,28,30,40)        179.9365         estimate D2E/DX2                !
 ! D95   D(32,28,30,26)       -179.8246         estimate D2E/DX2                !
 ! D96   D(32,28,30,40)          0.1804         estimate D2E/DX2                !
 ! D97   D(26,30,40,41)          3.0226         estimate D2E/DX2                !
 ! D98   D(26,30,40,42)       -176.7951         estimate D2E/DX2                !
 ! D99   D(28,30,40,41)       -176.9826         estimate D2E/DX2                !
 ! D100  D(28,30,40,42)          3.1996         estimate D2E/DX2                !
 ! D101  D(20,33,34,36)        179.8523         estimate D2E/DX2                !
 ! D102  D(20,33,34,37)          0.9712         estimate D2E/DX2                !
 ! D103  D(35,33,34,36)         -0.3116         estimate D2E/DX2                !
 ! D104  D(35,33,34,37)       -179.1927         estimate D2E/DX2                !
 ! D105  D(20,33,35,38)       -179.6822         estimate D2E/DX2                !
 ! D106  D(34,33,35,38)          0.4694         estimate D2E/DX2                !
 ! D107  D(33,34,36,38)         -0.0766         estimate D2E/DX2                !
 ! D108  D(33,34,36,39)       -178.0842         estimate D2E/DX2                !
 ! D109  D(37,34,36,38)        178.8108         estimate D2E/DX2                !
 ! D110  D(37,34,36,39)          0.8032         estimate D2E/DX2                !
 ! D111  D(33,35,38,36)         -0.5132         estimate D2E/DX2                !
 ! D112  D(33,35,38,58)        179.6986         estimate D2E/DX2                !
 ! D113  D(34,36,38,35)          0.4315         estimate D2E/DX2                !
 ! D114  D(34,36,38,58)       -179.7977         estimate D2E/DX2                !
 ! D115  D(39,36,38,35)        178.4495         estimate D2E/DX2                !
 ! D116  D(39,36,38,58)         -1.7797         estimate D2E/DX2                !
 ! D117  D(35,38,58,59)        -21.8534         estimate D2E/DX2                !
 ! D118  D(35,38,58,60)        158.2557         estimate D2E/DX2                !
 ! D119  D(36,38,58,59)        158.3993         estimate D2E/DX2                !
 ! D120  D(36,38,58,60)        -21.4915         estimate D2E/DX2                !
 ! D121  D(30,40,41,43)        179.8523         estimate D2E/DX2                !
 ! D122  D(30,40,41,44)          0.9713         estimate D2E/DX2                !
 ! D123  D(42,40,41,43)         -0.3117         estimate D2E/DX2                !
 ! D124  D(42,40,41,44)       -179.1927         estimate D2E/DX2                !
 ! D125  D(30,40,42,45)       -179.6822         estimate D2E/DX2                !
 ! D126  D(41,40,42,45)          0.4694         estimate D2E/DX2                !
 ! D127  D(40,41,43,45)         -0.0766         estimate D2E/DX2                !
 ! D128  D(40,41,43,46)       -178.0842         estimate D2E/DX2                !
 ! D129  D(44,41,43,45)        178.8107         estimate D2E/DX2                !
 ! D130  D(44,41,43,46)          0.8031         estimate D2E/DX2                !
 ! D131  D(40,42,45,43)         -0.5133         estimate D2E/DX2                !
 ! D132  D(40,42,45,47)        179.6986         estimate D2E/DX2                !
 ! D133  D(41,43,45,42)          0.4316         estimate D2E/DX2                !
 ! D134  D(41,43,45,47)       -179.7977         estimate D2E/DX2                !
 ! D135  D(46,43,45,42)        178.4495         estimate D2E/DX2                !
 ! D136  D(46,43,45,47)         -1.7797         estimate D2E/DX2                !
 ! D137  D(42,45,47,48)        -21.8531         estimate D2E/DX2                !
 ! D138  D(42,45,47,49)        158.2559         estimate D2E/DX2                !
 ! D139  D(43,45,47,48)        158.3996         estimate D2E/DX2                !
 ! D140  D(43,45,47,49)        -21.4913         estimate D2E/DX2                !
 ! D141  D(45,47,48,50)       -179.7736         estimate D2E/DX2                !
 ! D142  D(45,47,48,51)         -1.2623         estimate D2E/DX2                !
 ! D143  D(49,47,48,50)          0.119          estimate D2E/DX2                !
 ! D144  D(49,47,48,51)        178.6303         estimate D2E/DX2                !
 ! D145  D(45,47,49,52)        179.6484         estimate D2E/DX2                !
 ! D146  D(45,47,49,53)         -1.8344         estimate D2E/DX2                !
 ! D147  D(48,47,49,52)         -0.2458         estimate D2E/DX2                !
 ! D148  D(48,47,49,53)        178.2715         estimate D2E/DX2                !
 ! D149  D(47,48,50,54)          0.0683         estimate D2E/DX2                !
 ! D150  D(47,48,50,55)        179.5582         estimate D2E/DX2                !
 ! D151  D(51,48,50,54)       -178.4526         estimate D2E/DX2                !
 ! D152  D(51,48,50,55)          1.0373         estimate D2E/DX2                !
 ! D153  D(47,49,52,54)          0.1858         estimate D2E/DX2                !
 ! D154  D(47,49,52,56)        179.6342         estimate D2E/DX2                !
 ! D155  D(53,49,52,54)       -178.3394         estimate D2E/DX2                !
 ! D156  D(53,49,52,56)          1.109          estimate D2E/DX2                !
 ! D157  D(48,50,54,52)         -0.1321         estimate D2E/DX2                !
 ! D158  D(48,50,54,57)        179.9085         estimate D2E/DX2                !
 ! D159  D(55,50,54,52)       -179.6196         estimate D2E/DX2                !
 ! D160  D(55,50,54,57)          0.4211         estimate D2E/DX2                !
 ! D161  D(49,52,54,50)          0.0055         estimate D2E/DX2                !
 ! D162  D(49,52,54,57)        179.9648         estimate D2E/DX2                !
 ! D163  D(56,52,54,50)       -179.4402         estimate D2E/DX2                !
 ! D164  D(56,52,54,57)          0.5192         estimate D2E/DX2                !
 ! D165  D(38,58,59,61)       -179.7736         estimate D2E/DX2                !
 ! D166  D(38,58,59,62)         -1.2622         estimate D2E/DX2                !
 ! D167  D(60,58,59,61)          0.119          estimate D2E/DX2                !
 ! D168  D(60,58,59,62)        178.6303         estimate D2E/DX2                !
 ! D169  D(38,58,60,63)        179.6484         estimate D2E/DX2                !
 ! D170  D(38,58,60,64)         -1.8344         estimate D2E/DX2                !
 ! D171  D(59,58,60,63)         -0.2457         estimate D2E/DX2                !
 ! D172  D(59,58,60,64)        178.2715         estimate D2E/DX2                !
 ! D173  D(58,59,61,65)          0.0683         estimate D2E/DX2                !
 ! D174  D(58,59,61,66)        179.5583         estimate D2E/DX2                !
 ! D175  D(62,59,61,65)       -178.4526         estimate D2E/DX2                !
 ! D176  D(62,59,61,66)          1.0373         estimate D2E/DX2                !
 ! D177  D(58,60,63,65)          0.1858         estimate D2E/DX2                !
 ! D178  D(58,60,63,67)        179.6342         estimate D2E/DX2                !
 ! D179  D(64,60,63,65)       -178.3394         estimate D2E/DX2                !
 ! D180  D(64,60,63,67)          1.1091         estimate D2E/DX2                !
 ! D181  D(59,61,65,63)         -0.1321         estimate D2E/DX2                !
 ! D182  D(59,61,65,68)        179.9085         estimate D2E/DX2                !
 ! D183  D(66,61,65,63)       -179.6196         estimate D2E/DX2                !
 ! D184  D(66,61,65,68)          0.421          estimate D2E/DX2                !
 ! D185  D(60,63,65,61)          0.0055         estimate D2E/DX2                !
 ! D186  D(60,63,65,68)        179.9649         estimate D2E/DX2                !
 ! D187  D(67,63,65,61)       -179.4402         estimate D2E/DX2                !
 ! D188  D(67,63,65,68)          0.5192         estimate D2E/DX2                !
 --------------------------------------------------------------------------------
 Trust Radius=3.00D-01 FncErr=1.00D-07 GrdErr=1.00D-06 EigMax=2.50D+02 EigMin=1.00D-04
 Number of steps in this run=    395 maximum allowed number of steps=    408.
 GradGradGradGradGradGradGradGradGradGradGradGradGradGradGradGradGradGrad

 Stoichiometry    C38H24N2O2S2(1-,2)
 Framework group  C1[X(C38H24N2O2S2)]
 Deg. of freedom   198
 Full point group                 C1      NOp   1
 Largest Abelian subgroup         C1      NOp   1
 Largest concise Abelian subgroup C1      NOp   1
                         Standard orientation:                         
 ---------------------------------------------------------------------
 Center     Atomic      Atomic             Coordinates (Angstroms)
 Number     Number       Type             X           Y           Z
 ---------------------------------------------------------------------
      1          7           0        1.159380    1.787380   -0.004415
      2          6           0       -0.257939    1.796356   -0.003584
      3          6           0        1.704562    0.517923   -0.004360
      4          6           0        0.596957   -0.368592   -0.003077
      5          6           0       -0.596957    0.368592   -0.003079
      6          6           0       -1.704562   -0.517923   -0.004359
      7          6           0        0.257939   -1.796355   -0.003575
      8          7           0       -1.159380   -1.787379   -0.004407
      9          8           0       -0.929977    2.815678   -0.003260
     10          8           0        0.929977   -2.815678   -0.003246
     11          1           0       -1.675211   -2.655427   -0.003653
     12          1           0        1.675212    2.655428   -0.003664
     13          6           0       -3.108353   -0.254568   -0.006920
     14          6           0       -3.589667    1.083824   -0.006034
     15          6           0       -4.067788   -1.302887   -0.011359
     16          6           0       -4.942310    1.348668   -0.009708
     17          1           0       -2.884254    1.908783   -0.000783
     18          6           0       -5.418104   -1.031490   -0.016834
     19          1           0       -3.757136   -2.342766   -0.013353
     20          6           0       -5.905901    0.304587   -0.016969
     21          1           0       -5.265840    2.382893   -0.002883
     22          1           0       -6.116853   -1.861558   -0.025119
     23          6           0        3.108353    0.254569   -0.006919
     24          6           0        3.589667   -1.083823   -0.006029
     25          6           0        4.067788    1.302887   -0.011362
     26          6           0        4.942310   -1.348668   -0.009702
     27          1           0        2.884253   -1.908782   -0.000774
     28          6           0        5.418104    1.031490   -0.016837
     29          1           0        3.757136    2.342766   -0.013361
     30          6           0        5.905901   -0.304587   -0.016967
     31          1           0        5.265840   -2.382892   -0.002872
     32          1           0        6.116853    1.861558   -0.025125
     33          6           0       -7.317820    0.593613   -0.024045
     34          6           0       -7.946664    1.837878   -0.082707
     35         16           0       -8.530901   -0.677368    0.050222
     36          6           0       -9.347400    1.768452   -0.075313
     37          1           0       -7.406341    2.774285   -0.147466
     38          6           0       -9.845137    0.468770   -0.012431
     39          1           0       -9.986585    2.639715   -0.146105
     40          6           0        7.317820   -0.593613   -0.024044
     41          6           0        7.946664   -1.837878   -0.082708
     42         16           0        8.530902    0.677368    0.050226
     43          6           0        9.347399   -1.768453   -0.075315
     44          1           0        7.406340   -2.774285   -0.147470
     45          6           0        9.845137   -0.468771   -0.012431
     46          1           0        9.986584   -2.639716   -0.146109
     47          6           0       11.240265   -0.037182    0.008001
     48          6           0       11.612938    1.268887   -0.372034
     49          6           0       12.251783   -0.934660    0.412198
     50          6           0       12.948406    1.661682   -0.350893
     51          1           0       10.857029    1.972439   -0.708485
     52          6           0       13.586047   -0.537924    0.429125
     53          1           0       11.989508   -1.936313    0.736281
     54          6           0       13.940780    0.760460    0.048148
     55          1           0       13.216782    2.668922   -0.653767
     56          1           0       14.350193   -1.239640    0.748595
     57          1           0       14.981855    1.067463    0.062790
     58          6           0      -11.240264    0.037181    0.008001
     59          6           0      -11.612939   -1.268885   -0.372042
     60          6           0      -12.251782    0.934657    0.412206
     61          6           0      -12.948407   -1.661680   -0.350901
     62          1           0      -10.857030   -1.972435   -0.708499
     63          6           0      -13.586046    0.537921    0.429133
     64          1           0      -11.989506    1.936308    0.736295
     65          6           0      -13.940779   -0.760460    0.048148
     66          1           0      -13.216784   -2.668918   -0.653781
     67          1           0      -14.350191    1.239635    0.748608
     68          1           0      -14.981855   -1.067463    0.062789
 ---------------------------------------------------------------------
 Rotational constants (GHZ):           0.4797855           0.0125284           0.0122211
 Standard basis: 6-31+G(d,p) (6D, 7F)
 There are   964 symmetry adapted cartesian basis functions of A   symmetry.
 There are   964 symmetry adapted basis functions of A   symmetry.
   964 basis functions,  1624 primitive gaussians,   964 cartesian basis functions
   158 alpha electrons      157 beta electrons
       nuclear repulsion energy      4421.1328685994 Hartrees.
 NAtoms=   68 NActive=   68 NUniq=   68 SFac= 1.00D+00 NAtFMM=   60 NAOKFM=T Big=T
 Integral buffers will be    131072 words long.
 Raffenetti 2 integral format.
 Two-electron integral symmetry is turned on.
 One-electron integrals computed using PRISM.
 NBasis=   964 RedAO= T EigKep=  1.31D-06  NBF=   964
 NBsUse=   949 1.00D-06 EigRej=  7.98D-07 NBFU=   949
 ExpMin= 4.05D-02 ExpMax= 2.19D+04 ExpMxC= 3.30D+03 IAcc=3 IRadAn=         5 AccDes= 0.00D+00
 Harris functional with IExCor=  402 and IRadAn=       5 diagonalized for initial guess.
 HarFok:  IExCor=  402 AccDes= 0.00D+00 IRadAn=         5 IDoV= 1 UseB2=F ITyADJ=14
 ICtDFT=  3500011 ScaDFX=  1.000000  1.000000  1.000000  1.000000
 FoFCou: FMM=F IPFlag=           0 FMFlag=      100000 FMFlg1=        2001
         NFxFlg=           0 DoJE=T BraDBF=F KetDBF=T FulRan=T
         wScrn=  0.000000 ICntrl=       500 IOpCl=  0 I1Cent=   200000004 NGrid=           0
         NMat0=    1 NMatS0=      1 NMatT0=    0 NMatD0=    1 NMtDS0=    0 NMtDT0=    0
 Petite list used in FoFCou.
 Initial guess <Sx>= 0.0000 <Sy>= 0.0000 <Sz>= 0.5000 <S**2>= 0.7500 S= 0.5000
 Requested convergence on RMS density matrix=1.00D-08 within 128 cycles.
 Requested convergence on MAX density matrix=1.00D-06.
 Requested convergence on             energy=1.00D-06.
 No special actions if energy rises.
 Restarting incremental Fock formation.
 SCF Done:  E(UB3LYP) =  -2519.04011803     A.U. after   24 cycles
            NFock= 24  Conv=0.89D-08     -V/T= 2.0075
 <Sx>= 0.0000 <Sy>= 0.0000 <Sz>= 0.5000 <S**2>= 0.7743 S= 0.5121
 <L.S>=  0.00000000000    
 Annihilation of the first spin contaminant:
 S**2 before annihilation     0.7743,   after     0.7505

 **********************************************************************

            Population analysis using the SCF Density.

 **********************************************************************

 Orbital symmetries:
 Alpha Orbitals:
       Occupied  (A) (A) (A) (A) (A) (A) (A) (A) (A) (A) (A) (A)
                 (A) (A) (A) (A) (A) (A) (A) (A) (A) (A) (A) (A)
                 (A) (A) (A) (A) (A) (A) (A) (A) (A) (A) (A) (A)
                 (A) (A) (A) (A) (A) (A) (A) (A) (A) (A) (A) (A)
                 (A) (A) (A) (A) (A) (A) (A) (A) (A) (A) (A) (A)
                 (A) (A) (A) (A) (A) (A) (A) (A) (A) (A) (A) (A)
                 (A) (A) (A) (A) (A) (A) (A) (A) (A) (A) (A) (A)
                 (A) (A) (A) (A) (A) (A) (A) (A) (A) (A) (A) (A)
                 (A) (A) (A) (A) (A) (A) (A) (A) (A) (A) (A) (A)
                 (A) (A) (A) (A) (A) (A) (A) (A) (A) (A) (A) (A)
                 (A) (A) (A) (A) (A) (A) (A) (A) (A) (A) (A) (A)
                 (A) (A) (A) (A) (A) (A) (A) (A) (A) (A) (A) (A)
                 (A) (A) (A) (A) (A) (A) (A) (A) (A) (A) (A) (A)
                 (A) (A)
       Virtual   (A) (A) (A) (A) (A) (A) (A) (A) (A) (A) (A) (A)
                 (A) (A) (A) (A) (A) (A) (A) (A) (A) (A) (A) (A)
                 (A) (A) (A) (A) (A) (A) (A) (A) (A) (A) (A) (A)
                 (A) (A) (A) (A) (A) (A) (A) (A) (A) (A) (A) (A)
                 (A) (A) (A) (A) (A) (A) (A) (A) (A) (A) (A) (A)
                 (A) (A) (A) (A) (A) (A) (A) (A) (A) (A) (A) (A)
                 (A) (A) (A) (A) (A) (A) (A) (A) (A) (A) (A) (A)
                 (A) (A) (A) (A) (A) (A) (A) (A) (A) (A) (A) (A)
                 (A) (A) (A) (A) (A) (A) (A) (A) (A) (A) (A) (A)
                 (A) (A) (A) (A) (A) (A) (A) (A) (A) (A) (A) (A)
                 (A) (A) (A) (A) (A) (A) (A) (A) (A) (A) (A) (A)
                 (A) (A) (A) (A) (A) (A) (A) (A) (A) (A) (A) (A)
                 (A) (A) (A) (A) (A) (A) (A) (A) (A) (A) (A) (A)
                 (A) (A) (A) (A) (A) (A) (A) (A) (A) (A) (A) (A)
                 (A) (A) (A) (A) (A) (A) (A) (A) (A) (A) (A) (A)
                 (A) (A) (A) (A) (A) (A) (A) (A) (A) (A) (A) (A)
                 (A) (A) (A) (A) (A) (A) (A) (A) (A) (A) (A) (A)
                 (A) (A) (A) (A) (A) (A) (A) (A) (A) (A) (A) (A)
                 (A) (A) (A) (A) (A) (A) (A) (A) (A) (A) (A) (A)
                 (A) (A) (A) (A) (A) (A) (A) (A) (A) (A) (A) (A)
                 (A) (A) (A) (A) (A) (A) (A) (A) (A) (A) (A) (A)
                 (A) (A) (A) (A) (A) (A) (A) (A) (A) (A) (A) (A)
                 (A) (A) (A) (A) (A) (A) (A) (A) (A) (A) (A) (A)
                 (A) (A) (A) (A) (A) (A) (A) (A) (A) (A) (A) (A)
                 (A) (A) (A) (A) (A) (A) (A) (A) (A) (A) (A) (A)
                 (A) (A) (A) (A) (A) (A) (A) (A) (A) (A) (A) (A)
                 (A) (A) (A) (A) (A) (A) (A) (A) (A) (A) (A) (A)
                 (A) (A) (A) (A) (A) (A) (A) (A) (A) (A) (A) (A)
                 (A) (A) (A) (A) (A) (A) (A) (A) (A) (A) (A) (A)
                 (A) (A) (A) (A) (A) (A) (A) (A) (A) (A) (A) (A)
                 (A) (A) (A) (A) (A) (A) (A) (A) (A) (A) (A) (A)
                 (A) (A) (A) (A) (A) (A) (A) (A) (A) (A) (A) (A)
                 (A) (A) (A) (A) (A) (A) (A) (A) (A) (A) (A) (A)
                 (A) (A) (A) (A) (A) (A) (A) (A) (A) (A) (A) (A)
                 (A) (A) (A) (A) (A) (A) (A) (A) (A) (A) (A) (A)
                 (A) (A) (A) (A) (A) (A) (A) (A) (A) (A) (A) (A)
                 (A) (A) (A) (A) (A) (A) (A) (A) (A) (A) (A) (A)
                 (A) (A) (A) (A) (A) (A) (A) (A) (A) (A) (A) (A)
                 (A) (A) (A) (A) (A) (A) (A) (A) (A) (A) (A) (A)
                 (A) (A) (A) (A) (A) (A) (A) (A) (A) (A) (A) (A)
                 (A) (A) (A) (A) (A) (A) (A) (A) (A) (A) (A) (A)
                 (A) (A) (A) (A) (A) (A) (A) (A) (A) (A) (A) (A)
                 (A) (A) (A) (A) (A) (A) (A) (A) (A) (A) (A) (A)
                 (A) (A) (A) (A) (A) (A) (A) (A) (A) (A) (A) (A)
                 (A) (A) (A) (A) (A) (A) (A) (A) (A) (A) (A) (A)
                 (A) (A) (A) (A) (A) (A) (A) (A) (A) (A) (A) (A)
                 (A) (A) (A) (A) (A) (A) (A) (A) (A) (A) (A) (A)
                 (A) (A) (A) (A) (A) (A) (A) (A) (A) (A) (A) (A)
                 (A) (A) (A) (A) (A) (A) (A) (A) (A) (A) (A) (A)
                 (A) (A) (A) (A) (A) (A) (A) (A) (A) (A) (A) (A)
                 (A) (A) (A) (A) (A) (A) (A) (A) (A) (A) (A) (A)
                 (A) (A) (A) (A) (A) (A) (A) (A) (A) (A) (A) (A)
                 (A) (A) (A) (A) (A) (A) (A) (A) (A) (A) (A) (A)
                 (A) (A) (A) (A) (A) (A) (A) (A) (A) (A) (A) (A)
                 (A) (A) (A) (A) (A) (A) (A) (A) (A) (A) (A) (A)
                 (A) (A) (A) (A) (A) (A) (A) (A) (A) (A) (A) (A)
                 (A) (A) (A) (A) (A) (A) (A) (A) (A) (A) (A) (A)
                 (A) (A) (A) (A) (A) (A) (A) (A) (A) (A) (A) (A)
                 (A) (A) (A) (A) (A) (A) (A) (A) (A) (A) (A) (A)
                 (A) (A) (A) (A) (A) (A) (A) (A) (A) (A) (A) (A)
                 (A) (A) (A) (A) (A) (A) (A) (A) (A) (A) (A) (A)
                 (A) (A) (A) (A) (A) (A) (A) (A) (A) (A) (A) (A)
                 (A) (A) (A) (A) (A) (A) (A) (A) (A) (A) (A) (A)
                 (A) (A) (A) (A) (A) (A) (A) (A) (A) (A) (A) (A)
                 (A) (A) (A) (A) (A) (A) (A) (A) (A) (A) (A) (A)
                 (A) (A) (A) (A) (A) (A) (A) (A) (A) (A) (A)
 Beta  Orbitals:
       Occupied  (A) (A) (A) (A) (A) (A) (A) (A) (A) (A) (A) (A)
                 (A) (A) (A) (A) (A) (A) (A) (A) (A) (A) (A) (A)
                 (A) (A) (A) (A) (A) (A) (A) (A) (A) (A) (A) (A)
                 (A) (A) (A) (A) (A) (A) (A) (A) (A) (A) (A) (A)
                 (A) (A) (A) (A) (A) (A) (A) (A) (A) (A) (A) (A)
                 (A) (A) (A) (A) (A) (A) (A) (A) (A) (A) (A) (A)
                 (A) (A) (A) (A) (A) (A) (A) (A) (A) (A) (A) (A)
                 (A) (A) (A) (A) (A) (A) (A) (A) (A) (A) (A) (A)
                 (A) (A) (A) (A) (A) (A) (A) (A) (A) (A) (A) (A)
                 (A) (A) (A) (A) (A) (A) (A) (A) (A) (A) (A) (A)
                 (A) (A) (A) (A) (A) (A) (A) (A) (A) (A) (A) (A)
                 (A) (A) (A) (A) (A) (A) (A) (A) (A) (A) (A) (A)
                 (A) (A) (A) (A) (A) (A) (A) (A) (A) (A) (A) (A)
                 (A)
       Virtual   (A) (A) (A) (A) (A) (A) (A) (A) (A) (A) (A) (A)
                 (A) (A) (A) (A) (A) (A) (A) (A) (A) (A) (A) (A)
                 (A) (A) (A) (A) (A) (A) (A) (A) (A) (A) (A) (A)
                 (A) (A) (A) (A) (A) (A) (A) (A) (A) (A) (A) (A)
                 (A) (A) (A) (A) (A) (A) (A) (A) (A) (A) (A) (A)
                 (A) (A) (A) (A) (A) (A) (A) (A) (A) (A) (A) (A)
                 (A) (A) (A) (A) (A) (A) (A) (A) (A) (A) (A) (A)
                 (A) (A) (A) (A) (A) (A) (A) (A) (A) (A) (A) (A)
                 (A) (A) (A) (A) (A) (A) (A) (A) (A) (A) (A) (A)
                 (A) (A) (A) (A) (A) (A) (A) (A) (A) (A) (A) (A)
                 (A) (A) (A) (A) (A) (A) (A) (A) (A) (A) (A) (A)
                 (A) (A) (A) (A) (A) (A) (A) (A) (A) (A) (A) (A)
                 (A) (A) (A) (A) (A) (A) (A) (A) (A) (A) (A) (A)
                 (A) (A) (A) (A) (A) (A) (A) (A) (A) (A) (A) (A)
                 (A) (A) (A) (A) (A) (A) (A) (A) (A) (A) (A) (A)
                 (A) (A) (A) (A) (A) (A) (A) (A) (A) (A) (A) (A)
                 (A) (A) (A) (A) (A) (A) (A) (A) (A) (A) (A) (A)
                 (A) (A) (A) (A) (A) (A) (A) (A) (A) (A) (A) (A)
                 (A) (A) (A) (A) (A) (A) (A) (A) (A) (A) (A) (A)
                 (A) (A) (A) (A) (A) (A) (A) (A) (A) (A) (A) (A)
                 (A) (A) (A) (A) (A) (A) (A) (A) (A) (A) (A) (A)
                 (A) (A) (A) (A) (A) (A) (A) (A) (A) (A) (A) (A)
                 (A) (A) (A) (A) (A) (A) (A) (A) (A) (A) (A) (A)
                 (A) (A) (A) (A) (A) (A) (A) (A) (A) (A) (A) (A)
                 (A) (A) (A) (A) (A) (A) (A) (A) (A) (A) (A) (A)
                 (A) (A) (A) (A) (A) (A) (A) (A) (A) (A) (A) (A)
                 (A) (A) (A) (A) (A) (A) (A) (A) (A) (A) (A) (A)
                 (A) (A) (A) (A) (A) (A) (A) (A) (A) (A) (A) (A)
                 (A) (A) (A) (A) (A) (A) (A) (A) (A) (A) (A) (A)
                 (A) (A) (A) (A) (A) (A) (A) (A) (A) (A) (A) (A)
                 (A) (A) (A) (A) (A) (A) (A) (A) (A) (A) (A) (A)
                 (A) (A) (A) (A) (A) (A) (A) (A) (A) (A) (A) (A)
                 (A) (A) (A) (A) (A) (A) (A) (A) (A) (A) (A) (A)
                 (A) (A) (A) (A) (A) (A) (A) (A) (A) (A) (A) (A)
                 (A) (A) (A) (A) (A) (A) (A) (A) (A) (A) (A) (A)
                 (A) (A) (A) (A) (A) (A) (A) (A) (A) (A) (A) (A)
                 (A) (A) (A) (A) (A) (A) (A) (A) (A) (A) (A) (A)
                 (A) (A) (A) (A) (A) (A) (A) (A) (A) (A) (A) (A)
                 (A) (A) (A) (A) (A) (A) (A) (A) (A) (A) (A) (A)
                 (A) (A) (A) (A) (A) (A) (A) (A) (A) (A) (A) (A)
                 (A) (A) (A) (A) (A) (A) (A) (A) (A) (A) (A) (A)
                 (A) (A) (A) (A) (A) (A) (A) (A) (A) (A) (A) (A)
                 (A) (A) (A) (A) (A) (A) (A) (A) (A) (A) (A) (A)
                 (A) (A) (A) (A) (A) (A) (A) (A) (A) (A) (A) (A)
                 (A) (A) (A) (A) (A) (A) (A) (A) (A) (A) (A) (A)
                 (A) (A) (A) (A) (A) (A) (A) (A) (A) (A) (A) (A)
                 (A) (A) (A) (A) (A) (A) (A) (A) (A) (A) (A) (A)
                 (A) (A) (A) (A) (A) (A) (A) (A) (A) (A) (A) (A)
                 (A) (A) (A) (A) (A) (A) (A) (A) (A) (A) (A) (A)
                 (A) (A) (A) (A) (A) (A) (A) (A) (A) (A) (A) (A)
                 (A) (A) (A) (A) (A) (A) (A) (A) (A) (A) (A) (A)
                 (A) (A) (A) (A) (A) (A) (A) (A) (A) (A) (A) (A)
                 (A) (A) (A) (A) (A) (A) (A) (A) (A) (A) (A) (A)
                 (A) (A) (A) (A) (A) (A) (A) (A) (A) (A) (A) (A)
                 (A) (A) (A) (A) (A) (A) (A) (A) (A) (A) (A) (A)
                 (A) (A) (A) (A) (A) (A) (A) (A) (A) (A) (A) (A)
                 (A) (A) (A) (A) (A) (A) (A) (A) (A) (A) (A) (A)
                 (A) (A) (A) (A) (A) (A) (A) (A) (A) (A) (A) (A)
                 (A) (A) (A) (A) (A) (A) (A) (A) (A) (A) (A) (A)
                 (A) (A) (A) (A) (A) (A) (A) (A) (A) (A) (A) (A)
                 (A) (A) (A) (A) (A) (A) (A) (A) (A) (A) (A) (A)
                 (A) (A) (A) (A) (A) (A) (A) (A) (A) (A) (A) (A)
                 (A) (A) (A) (A) (A) (A) (A) (A) (A) (A) (A) (A)
                 (A) (A) (A) (A) (A) (A) (A) (A) (A) (A) (A) (A)
                 (A) (A) (A) (A) (A) (A) (A) (A) (A) (A) (A) (A)
                 (A) (A) (A) (A) (A) (A) (A) (A) (A) (A) (A) (A)
 The electronic state is 2-A.
 Alpha  occ. eigenvalues --  -88.83961 -88.83961 -19.02998 -19.02998 -14.28495
 Alpha  occ. eigenvalues --  -14.28495 -10.19677 -10.19676 -10.15415 -10.15415
 Alpha  occ. eigenvalues --  -10.15333 -10.15333 -10.15298 -10.15298 -10.14833
 Alpha  occ. eigenvalues --  -10.14833 -10.14245 -10.14245 -10.14208 -10.14208
 Alpha  occ. eigenvalues --  -10.13905 -10.13905 -10.13883 -10.13883 -10.13768
 Alpha  occ. eigenvalues --  -10.13768 -10.12909 -10.12909 -10.12604 -10.12604
 Alpha  occ. eigenvalues --  -10.12183 -10.12183 -10.12132 -10.12132 -10.11746
 Alpha  occ. eigenvalues --  -10.11746 -10.11623 -10.11623 -10.11081 -10.11081
 Alpha  occ. eigenvalues --  -10.10182 -10.10182 -10.09045 -10.08991  -7.89912
 Alpha  occ. eigenvalues --   -7.89912  -5.86337  -5.86337  -5.85978  -5.85978
 Alpha  occ. eigenvalues --   -5.85619  -5.85619  -0.95070  -0.94657  -0.87572
 Alpha  occ. eigenvalues --   -0.86318  -0.82197  -0.82196  -0.79932  -0.79930
 Alpha  occ. eigenvalues --   -0.77645  -0.77621  -0.72133  -0.72092  -0.70799
 Alpha  occ. eigenvalues --   -0.69771  -0.69668  -0.69576  -0.69443  -0.67462
 Alpha  occ. eigenvalues --   -0.67386  -0.66510  -0.66323  -0.64738  -0.64087
 Alpha  occ. eigenvalues --   -0.60919  -0.59161  -0.57742  -0.56155  -0.55763
 Alpha  occ. eigenvalues --   -0.55554  -0.55250  -0.53262  -0.53116  -0.53048
 Alpha  occ. eigenvalues --   -0.51962  -0.48959  -0.48576  -0.47543  -0.47468
 Alpha  occ. eigenvalues --   -0.46979  -0.46270  -0.46024  -0.44962  -0.44377
 Alpha  occ. eigenvalues --   -0.44333  -0.42742  -0.42204  -0.40166  -0.40050
 Alpha  occ. eigenvalues --   -0.39803  -0.39654  -0.38860  -0.37582  -0.37547
 Alpha  occ. eigenvalues --   -0.37428  -0.37423  -0.36924  -0.36851  -0.36510
 Alpha  occ. eigenvalues --   -0.35921  -0.35535  -0.34815  -0.34485  -0.34386
 Alpha  occ. eigenvalues --   -0.33948  -0.33577  -0.33415  -0.33181  -0.32994
 Alpha  occ. eigenvalues --   -0.32351  -0.32338  -0.31780  -0.31677  -0.31006
 Alpha  occ. eigenvalues --   -0.30987  -0.30112  -0.30059  -0.29391  -0.29338
 Alpha  occ. eigenvalues --   -0.29219  -0.28951  -0.28750  -0.28599  -0.27827
 Alpha  occ. eigenvalues --   -0.27319  -0.27317  -0.25760  -0.25220  -0.25141
 Alpha  occ. eigenvalues --   -0.25023  -0.22308  -0.22154  -0.20366  -0.20366
 Alpha  occ. eigenvalues --   -0.19061  -0.19014  -0.18736  -0.18594  -0.17964
 Alpha  occ. eigenvalues --   -0.17915  -0.17854  -0.16464  -0.16202  -0.13690
 Alpha  occ. eigenvalues --   -0.13218  -0.09220  -0.04316
 Alpha virt. eigenvalues --    0.00099   0.01694   0.03859   0.03941   0.04373
 Alpha virt. eigenvalues --    0.05252   0.05252   0.06030   0.06803   0.06845
 Alpha virt. eigenvalues --    0.06930   0.06956   0.07058   0.07095   0.07655
 Alpha virt. eigenvalues --    0.07802   0.08171   0.08723   0.08808   0.09099
 Alpha virt. eigenvalues --    0.09111   0.09586   0.09733   0.09982   0.10080
 Alpha virt. eigenvalues --    0.10137   0.10435   0.10600   0.10810   0.10964
 Alpha virt. eigenvalues --    0.11102   0.11615   0.11931   0.11941   0.12182
 Alpha virt. eigenvalues --    0.12346   0.12393   0.12587   0.13039   0.13173
 Alpha virt. eigenvalues --    0.13227   0.13796   0.13899   0.13929   0.14185
 Alpha virt. eigenvalues --    0.14459   0.14930   0.15175   0.15292   0.15544
 Alpha virt. eigenvalues --    0.15575   0.16024   0.16358   0.16389   0.16699
 Alpha virt. eigenvalues --    0.16974   0.17168   0.17390   0.17572   0.17704
 Alpha virt. eigenvalues --    0.17772   0.18070   0.18242   0.18268   0.18588
 Alpha virt. eigenvalues --    0.19033   0.19102   0.19314   0.19358   0.19589
 Alpha virt. eigenvalues --    0.19871   0.19872   0.19925   0.20019   0.20393
 Alpha virt. eigenvalues --    0.20399   0.20670   0.20833   0.20931   0.21338
 Alpha virt. eigenvalues --    0.21478   0.21556   0.21624   0.22065   0.22395
 Alpha virt. eigenvalues --    0.22463   0.22549   0.22626   0.22804   0.23098
 Alpha virt. eigenvalues --    0.23283   0.23366   0.23422   0.23760   0.23784
 Alpha virt. eigenvalues --    0.24198   0.24209   0.24285   0.24544   0.24631
 Alpha virt. eigenvalues --    0.24786   0.24934   0.25038   0.25115   0.25431
 Alpha virt. eigenvalues --    0.25586   0.25692   0.25834   0.25902   0.26148
 Alpha virt. eigenvalues --    0.26248   0.26455   0.26600   0.26825   0.26884
 Alpha virt. eigenvalues --    0.27130   0.27340   0.27423   0.27438   0.27815
 Alpha virt. eigenvalues --    0.27849   0.28041   0.28256   0.28360   0.28793
 Alpha virt. eigenvalues --    0.28859   0.29189   0.29314   0.29323   0.29519
 Alpha virt. eigenvalues --    0.29595   0.29702   0.29868   0.29956   0.30088
 Alpha virt. eigenvalues --    0.30572   0.30683   0.30754   0.30960   0.31059
 Alpha virt. eigenvalues --    0.31216   0.31291   0.31342   0.31841   0.31905
 Alpha virt. eigenvalues --    0.31967   0.32151   0.32214   0.32446   0.32471
 Alpha virt. eigenvalues --    0.32831   0.32927   0.33170   0.33222   0.33430
 Alpha virt. eigenvalues --    0.33652   0.33772   0.34001   0.34048   0.34319
 Alpha virt. eigenvalues --    0.34423   0.34668   0.34693   0.34880   0.34913
 Alpha virt. eigenvalues --    0.35242   0.35297   0.35878   0.36099   0.36142
 Alpha virt. eigenvalues --    0.36326   0.36484   0.36721   0.36969   0.37148
 Alpha virt. eigenvalues --    0.37155   0.37487   0.37514   0.37602   0.37633
 Alpha virt. eigenvalues --    0.38025   0.38603   0.38640   0.38901   0.38969
 Alpha virt. eigenvalues --    0.39473   0.39591   0.39959   0.40090   0.40510
 Alpha virt. eigenvalues --    0.40601   0.40704   0.40715   0.40921   0.41244
 Alpha virt. eigenvalues --    0.41717   0.41750   0.42685   0.42806   0.42916
 Alpha virt. eigenvalues --    0.43084   0.43394   0.43724   0.43762   0.43911
 Alpha virt. eigenvalues --    0.44144   0.44288   0.44708   0.45303   0.45569
 Alpha virt. eigenvalues --    0.45838   0.45961   0.46163   0.46554   0.46846
 Alpha virt. eigenvalues --    0.47656   0.47670   0.48316   0.48412   0.48898
 Alpha virt. eigenvalues --    0.49741   0.49798   0.50100   0.50338   0.50900
 Alpha virt. eigenvalues --    0.51046   0.51376   0.53203   0.53327   0.54916
 Alpha virt. eigenvalues --    0.55113   0.55304   0.55818   0.57366   0.57727
 Alpha virt. eigenvalues --    0.57756   0.58933   0.59103   0.59926   0.60384
 Alpha virt. eigenvalues --    0.60540   0.60942   0.61024   0.61153   0.62148
 Alpha virt. eigenvalues --    0.62916   0.63550   0.64187   0.65459   0.66259
 Alpha virt. eigenvalues --    0.66907   0.67145   0.68956   0.69308   0.69858
 Alpha virt. eigenvalues --    0.70129   0.70278   0.71625   0.71804   0.72786
 Alpha virt. eigenvalues --    0.73066   0.73092   0.73453   0.73913   0.74210
 Alpha virt. eigenvalues --    0.74291   0.74351   0.74496   0.74947   0.74954
 Alpha virt. eigenvalues --    0.75439   0.75526   0.75740   0.75871   0.76093
 Alpha virt. eigenvalues --    0.76550   0.76646   0.77104   0.77133   0.77940
 Alpha virt. eigenvalues --    0.78237   0.78351   0.78462   0.78780   0.78817
 Alpha virt. eigenvalues --    0.79116   0.79156   0.80196   0.80382   0.80463
 Alpha virt. eigenvalues --    0.80814   0.80842   0.81049   0.81251   0.81496
 Alpha virt. eigenvalues --    0.81787   0.82518   0.82605   0.82924   0.83049
 Alpha virt. eigenvalues --    0.83231   0.83468   0.83577   0.84182   0.84434
 Alpha virt. eigenvalues --    0.84925   0.85213   0.85483   0.86126   0.86175
 Alpha virt. eigenvalues --    0.86373   0.87172   0.87355   0.87640   0.88622
 Alpha virt. eigenvalues --    0.88904   0.88947   0.89080   0.89764   0.90036
 Alpha virt. eigenvalues --    0.90311   0.91296   0.91580   0.92196   0.92828
 Alpha virt. eigenvalues --    0.92846   0.93125   0.93207   0.93237   0.94490
 Alpha virt. eigenvalues --    0.94705   0.96081   0.96157   0.96214   0.96233
 Alpha virt. eigenvalues --    0.96830   0.97634   0.97768   0.97934   0.97952
 Alpha virt. eigenvalues --    0.98191   0.98866   0.99214   0.99357   0.99716
 Alpha virt. eigenvalues --    1.01457   1.01608   1.01923   1.02407   1.02598
 Alpha virt. eigenvalues --    1.02908   1.04248   1.04348   1.04470   1.05152
 Alpha virt. eigenvalues --    1.06192   1.06517   1.06756   1.06886   1.07175
 Alpha virt. eigenvalues --    1.07218   1.08231   1.08687   1.08933   1.09044
 Alpha virt. eigenvalues --    1.09278   1.09340   1.10192   1.10790   1.11308
 Alpha virt. eigenvalues --    1.13155   1.13824   1.14639   1.14793   1.14806
 Alpha virt. eigenvalues --    1.15126   1.15127   1.15525   1.16339   1.16399
 Alpha virt. eigenvalues --    1.17839   1.18067   1.18552   1.18941   1.19074
 Alpha virt. eigenvalues --    1.19930   1.19968   1.20770   1.21413   1.21702
 Alpha virt. eigenvalues --    1.21848   1.22120   1.22209   1.23684   1.23741
 Alpha virt. eigenvalues --    1.24327   1.24739   1.24922   1.25525   1.26363
 Alpha virt. eigenvalues --    1.26371   1.26886   1.27204   1.27897   1.29373
 Alpha virt. eigenvalues --    1.30032   1.30968   1.31232   1.31590   1.31683
 Alpha virt. eigenvalues --    1.31948   1.32038   1.32465   1.33290   1.33881
 Alpha virt. eigenvalues --    1.33965   1.34261   1.35383   1.35403   1.35821
 Alpha virt. eigenvalues --    1.36203   1.36506   1.36981   1.37380   1.37520
 Alpha virt. eigenvalues --    1.37547   1.38023   1.38447   1.38814   1.40207
 Alpha virt. eigenvalues --    1.40594   1.40665   1.40936   1.41072   1.41174
 Alpha virt. eigenvalues --    1.41425   1.41789   1.42568   1.43045   1.43797
 Alpha virt. eigenvalues --    1.43855   1.44328   1.45388   1.45403   1.46299
 Alpha virt. eigenvalues --    1.46343   1.46376   1.46711   1.46819   1.46926
 Alpha virt. eigenvalues --    1.46996   1.47306   1.47430   1.48092   1.48334
 Alpha virt. eigenvalues --    1.48407   1.48488   1.48597   1.48915   1.49555
 Alpha virt. eigenvalues --    1.49991   1.50167   1.50573   1.51305   1.51745
 Alpha virt. eigenvalues --    1.52775   1.52859   1.53495   1.53672   1.54322
 Alpha virt. eigenvalues --    1.56705   1.57217   1.58031   1.58211   1.59732
 Alpha virt. eigenvalues --    1.60400   1.60554   1.60930   1.63744   1.64579
 Alpha virt. eigenvalues --    1.65461   1.65878   1.66010   1.68360   1.69076
 Alpha virt. eigenvalues --    1.70185   1.70791   1.72508   1.74551   1.76515
 Alpha virt. eigenvalues --    1.76590   1.76649   1.77507   1.83571   1.85770
 Alpha virt. eigenvalues --    1.86769   1.87144   1.87672   1.87693   1.88092
 Alpha virt. eigenvalues --    1.88601   1.88605   1.88961   1.89438   1.89699
 Alpha virt. eigenvalues --    1.90025   1.90718   1.92201   1.92446   1.92567
 Alpha virt. eigenvalues --    1.92867   1.93079   1.93324   1.94607   1.94621
 Alpha virt. eigenvalues --    1.96326   1.96744   1.96746   1.96923   1.96933
 Alpha virt. eigenvalues --    1.97426   1.97982   1.98179   1.99247   2.00252
 Alpha virt. eigenvalues --    2.00313   2.00887   2.01188   2.01433   2.01923
 Alpha virt. eigenvalues --    2.02402   2.02610   2.03182   2.03650   2.03954
 Alpha virt. eigenvalues --    2.04287   2.05311   2.05727   2.05817   2.06227
 Alpha virt. eigenvalues --    2.06283   2.06340   2.06442   2.06936   2.06947
 Alpha virt. eigenvalues --    2.07781   2.07873   2.08443   2.08727   2.09508
 Alpha virt. eigenvalues --    2.10094   2.10207   2.11736   2.12007   2.12315
 Alpha virt. eigenvalues --    2.12612   2.13613   2.13663   2.14484   2.14736
 Alpha virt. eigenvalues --    2.16976   2.17193   2.17584   2.17860   2.18147
 Alpha virt. eigenvalues --    2.18790   2.19765   2.21298   2.23449   2.24729
 Alpha virt. eigenvalues --    2.25827   2.26125   2.27018   2.27707   2.28112
 Alpha virt. eigenvalues --    2.28164   2.28821   2.28925   2.30300   2.30854
 Alpha virt. eigenvalues --    2.30893   2.31097   2.33422   2.33773   2.34039
 Alpha virt. eigenvalues --    2.34217   2.34504   2.34689   2.35916   2.36148
 Alpha virt. eigenvalues --    2.36906   2.36974   2.37692   2.40149   2.40275
 Alpha virt. eigenvalues --    2.40596   2.42303   2.42329   2.42953   2.43901
 Alpha virt. eigenvalues --    2.43903   2.44092   2.44261   2.44542   2.44571
 Alpha virt. eigenvalues --    2.45043   2.46498   2.46499   2.47776   2.47876
 Alpha virt. eigenvalues --    2.48902   2.49063   2.49300   2.51768   2.52197
 Alpha virt. eigenvalues --    2.52249   2.52256   2.52429   2.52742   2.52756
 Alpha virt. eigenvalues --    2.54586   2.55502   2.55532   2.56257   2.56345
 Alpha virt. eigenvalues --    2.56533   2.57285   2.57351   2.58198   2.58208
 Alpha virt. eigenvalues --    2.58674   2.58866   2.59747   2.60485   2.61497
 Alpha virt. eigenvalues --    2.61679   2.62859   2.62997   2.64358   2.64680
 Alpha virt. eigenvalues --    2.64842   2.64982   2.65417   2.65889   2.65938
 Alpha virt. eigenvalues --    2.67269   2.67283   2.67706   2.67741   2.67899
 Alpha virt. eigenvalues --    2.68269   2.68323   2.68683   2.69126   2.70336
 Alpha virt. eigenvalues --    2.70464   2.71158   2.71517   2.71527   2.73097
 Alpha virt. eigenvalues --    2.73369   2.73380   2.74987   2.75338   2.75434
 Alpha virt. eigenvalues --    2.76122   2.76852   2.78266   2.78737   2.78991
 Alpha virt. eigenvalues --    2.79885   2.81076   2.81535   2.82260   2.83587
 Alpha virt. eigenvalues --    2.84830   2.84853   2.86456   2.86962   2.89034
 Alpha virt. eigenvalues --    2.89429   2.89644   2.90092   2.90944   2.96274
 Alpha virt. eigenvalues --    2.96875   2.96925   2.97581   2.99844   3.01109
 Alpha virt. eigenvalues --    3.02580   3.03758   3.03988   3.06710   3.06878
 Alpha virt. eigenvalues --    3.07774   3.08581   3.09808   3.11262   3.11835
 Alpha virt. eigenvalues --    3.12458   3.13738   3.14516   3.16521   3.16981
 Alpha virt. eigenvalues --    3.17795   3.18387   3.19305   3.22910   3.24646
 Alpha virt. eigenvalues --    3.24926   3.26956   3.29014   3.29535   3.30739
 Alpha virt. eigenvalues --    3.32400   3.32400   3.34547   3.34570   3.37659
 Alpha virt. eigenvalues --    3.37823   3.38951   3.38968   3.40051   3.41055
 Alpha virt. eigenvalues --    3.42187   3.42716   3.43483   3.44585   3.48294
 Alpha virt. eigenvalues --    3.48942   3.50141   3.50180   3.52753   3.59049
 Alpha virt. eigenvalues --    3.59087   3.59952   3.64349   3.65349   3.67689
 Alpha virt. eigenvalues --    3.68380   3.75152   3.75243   3.92440   3.92709
 Alpha virt. eigenvalues --    3.95434   3.95440   4.06659   4.06744   4.34760
 Alpha virt. eigenvalues --    4.34804   4.36046   4.36103   4.36562   4.38200
 Alpha virt. eigenvalues --    4.38766   4.38800   4.38857   4.40935   4.41831
 Alpha virt. eigenvalues --    4.42844   4.43493   4.43894   4.44138   4.46178
 Alpha virt. eigenvalues --    4.46587   4.46661   4.48781   4.50110   4.52603
 Alpha virt. eigenvalues --    4.54441   4.54647   4.56727   4.56774   4.56924
 Alpha virt. eigenvalues --    4.58173   4.61956   4.62081   4.63888   4.65579
 Alpha virt. eigenvalues --    4.70115   4.74326   4.76466   4.81708   4.88079
 Alpha virt. eigenvalues --    4.92801   4.92871   4.99150   5.01113   5.16821
 Alpha virt. eigenvalues --    5.24660
  Beta  occ. eigenvalues --  -88.83946 -88.83946 -19.02880 -19.02880 -14.28497
  Beta  occ. eigenvalues --  -14.28497 -10.19639 -10.19639 -10.15460 -10.15460
  Beta  occ. eigenvalues --  -10.15336 -10.15336 -10.15195 -10.15195 -10.14564
  Beta  occ. eigenvalues --  -10.14564 -10.14259 -10.14259 -10.14223 -10.14223
  Beta  occ. eigenvalues --  -10.13868 -10.13868 -10.13854 -10.13854 -10.13736
  Beta  occ. eigenvalues --  -10.13736 -10.12957 -10.12957 -10.12435 -10.12435
  Beta  occ. eigenvalues --  -10.12169 -10.12169 -10.12094 -10.12094 -10.11799
  Beta  occ. eigenvalues --  -10.11799 -10.11530 -10.11529 -10.11122 -10.11122
  Beta  occ. eigenvalues --  -10.10087 -10.10087 -10.09087 -10.09033  -7.89897
  Beta  occ. eigenvalues --   -7.89897  -5.86329  -5.86329  -5.85971  -5.85971
  Beta  occ. eigenvalues --   -5.85569  -5.85569  -0.94883  -0.94464  -0.87384
  Beta  occ. eigenvalues --   -0.86129  -0.82112  -0.82111  -0.79882  -0.79880
  Beta  occ. eigenvalues --   -0.77523  -0.77499  -0.71999  -0.71963  -0.70777
  Beta  occ. eigenvalues --   -0.69659  -0.69617  -0.69485  -0.69304  -0.67358
  Beta  occ. eigenvalues --   -0.67288  -0.66405  -0.66223  -0.64533  -0.63925
  Beta  occ. eigenvalues --   -0.60710  -0.58799  -0.57661  -0.56103  -0.55716
  Beta  occ. eigenvalues --   -0.55529  -0.55194  -0.53150  -0.53048  -0.52994
  Beta  occ. eigenvalues --   -0.51849  -0.48905  -0.48535  -0.47449  -0.47380
  Beta  occ. eigenvalues --   -0.46924  -0.46229  -0.45979  -0.44910  -0.44298
  Beta  occ. eigenvalues --   -0.44261  -0.42651  -0.42105  -0.40123  -0.40001
  Beta  occ. eigenvalues --   -0.39770  -0.39631  -0.38777  -0.37544  -0.37487
  Beta  occ. eigenvalues --   -0.37383  -0.37374  -0.36896  -0.36815  -0.36030
  Beta  occ. eigenvalues --   -0.35855  -0.35468  -0.34761  -0.34452  -0.34328
  Beta  occ. eigenvalues --   -0.33849  -0.33411  -0.33226  -0.33056  -0.32506
  Beta  occ. eigenvalues --   -0.32282  -0.32246  -0.31677  -0.31566  -0.30847
  Beta  occ. eigenvalues --   -0.30831  -0.30063  -0.30017  -0.29304  -0.29300
  Beta  occ. eigenvalues --   -0.28890  -0.28872  -0.28500  -0.28422  -0.27736
  Beta  occ. eigenvalues --   -0.27267  -0.27266  -0.25188  -0.25108  -0.25041
  Beta  occ. eigenvalues --   -0.24279  -0.21983  -0.21848  -0.20265  -0.20265
  Beta  occ. eigenvalues --   -0.18797  -0.18753  -0.18333  -0.18195  -0.17808
  Beta  occ. eigenvalues --   -0.17648  -0.17493  -0.16477  -0.16103  -0.13275
  Beta  occ. eigenvalues --   -0.12843  -0.08206
  Beta virt. eigenvalues --   -0.01000   0.00654   0.02537   0.03964   0.04013
  Beta virt. eigenvalues --    0.04899   0.05250   0.05250   0.06561   0.06852
  Beta virt. eigenvalues --    0.06867   0.06983   0.07006   0.07120   0.07237
  Beta virt. eigenvalues --    0.07657   0.07802   0.08719   0.08719   0.08805
  Beta virt. eigenvalues --    0.09102   0.09115   0.09601   0.09753   0.10088
  Beta virt. eigenvalues --    0.10126   0.10197   0.10521   0.10655   0.10910
  Beta virt. eigenvalues --    0.10972   0.11306   0.11662   0.11950   0.11973
  Beta virt. eigenvalues --    0.12235   0.12445   0.12445   0.12630   0.13048
  Beta virt. eigenvalues --    0.13185   0.13276   0.13815   0.14046   0.14048
  Beta virt. eigenvalues --    0.14201   0.14483   0.15060   0.15209   0.15308
  Beta virt. eigenvalues --    0.15594   0.15658   0.16047   0.16407   0.16427
  Beta virt. eigenvalues --    0.16703   0.16981   0.17187   0.17427   0.17671
  Beta virt. eigenvalues --    0.17745   0.17834   0.18095   0.18275   0.18331
  Beta virt. eigenvalues --    0.18699   0.19045   0.19139   0.19341   0.19570
  Beta virt. eigenvalues --    0.19667   0.19903   0.19949   0.19998   0.20055
  Beta virt. eigenvalues --    0.20442   0.20455   0.20676   0.20862   0.21011
  Beta virt. eigenvalues --    0.21404   0.21513   0.21572   0.21665   0.22136
  Beta virt. eigenvalues --    0.22438   0.22490   0.22584   0.22699   0.22856
  Beta virt. eigenvalues --    0.23119   0.23346   0.23396   0.23500   0.23841
  Beta virt. eigenvalues --    0.23845   0.24222   0.24254   0.24320   0.24563
  Beta virt. eigenvalues --    0.24704   0.24797   0.24967   0.25053   0.25220
  Beta virt. eigenvalues --    0.25458   0.25665   0.25718   0.25845   0.25930
  Beta virt. eigenvalues --    0.26184   0.26293   0.26488   0.26639   0.26881
  Beta virt. eigenvalues --    0.26903   0.27307   0.27354   0.27490   0.27641
  Beta virt. eigenvalues --    0.27848   0.27875   0.28125   0.28381   0.28404
  Beta virt. eigenvalues --    0.28803   0.28911   0.29224   0.29341   0.29382
  Beta virt. eigenvalues --    0.29583   0.29620   0.29730   0.29964   0.29984
  Beta virt. eigenvalues --    0.30147   0.30643   0.30740   0.30793   0.30988
  Beta virt. eigenvalues --    0.31080   0.31267   0.31313   0.31417   0.31890
  Beta virt. eigenvalues --    0.31940   0.32000   0.32185   0.32256   0.32483
  Beta virt. eigenvalues --    0.32498   0.32866   0.32956   0.33199   0.33252
  Beta virt. eigenvalues --    0.33492   0.33734   0.33822   0.34039   0.34085
  Beta virt. eigenvalues --    0.34351   0.34432   0.34706   0.34732   0.34923
  Beta virt. eigenvalues --    0.34945   0.35280   0.35331   0.35948   0.36134
  Beta virt. eigenvalues --    0.36178   0.36384   0.36548   0.36755   0.36991
  Beta virt. eigenvalues --    0.37170   0.37184   0.37518   0.37559   0.37632
  Beta virt. eigenvalues --    0.37676   0.38072   0.38628   0.38702   0.38961
  Beta virt. eigenvalues --    0.39006   0.39507   0.39693   0.39999   0.40136
  Beta virt. eigenvalues --    0.40556   0.40658   0.40773   0.40812   0.40983
  Beta virt. eigenvalues --    0.41257   0.41743   0.41778   0.42760   0.42829
  Beta virt. eigenvalues --    0.42952   0.43115   0.43460   0.43781   0.43832
  Beta virt. eigenvalues --    0.43927   0.44208   0.44366   0.44736   0.45340
  Beta virt. eigenvalues --    0.45626   0.45973   0.46026   0.46208   0.46593
  Beta virt. eigenvalues --    0.46888   0.47687   0.47731   0.48348   0.48451
  Beta virt. eigenvalues --    0.48961   0.49779   0.49846   0.50156   0.50368
  Beta virt. eigenvalues --    0.50933   0.51064   0.51448   0.53236   0.53376
  Beta virt. eigenvalues --    0.54984   0.55177   0.55347   0.55898   0.57418
[...]
 0000188,0.00004593,0.00002387,-0.00000024,0.00000148,-0.00000039,0.000
 00101,-0.00008671,-0.00002646,-0.00000559,-0.00000264,0.00000336,0.000
 00092,0.00008288,0.00002968,0.00000859,-0.00001845,-0.00002699,-0.0000
 0173,-0.00003331,0.00000718,-0.00000213,0.00001353,0.00000380,0.000000
 26,0.00000176,0.00000203,-0.00000082,0.00001560,0.00000913,0.00000123,
 0.00000192,0.00000056,-0.00000007,-0.00002273,-0.00000940,-0.00000017,
 -0.00000096,-0.00000334,0.00000049,-0.00000308,0.00000243,-0.00000096,
 -0.00000288,-0.00000088,-0.00000069,-0.00124122,0.00210048,-0.00050561
 ,0.00019661,-0.00563959,-0.00115369,0.00024565,0.00066478,0.00014655,-
 0.06098119,-0.31846603,-0.02922088,-0.00017363,0.00085606,0.00063881,0
 .00423283,-0.00072991,-0.00142558,-0.00003984,-0.00007981,0.00012965,-
 0.00805834,-0.01606926,-0.00159060,0.06605190,0.33801254,0.00001021,-0
 .00000694,-0.00000109,-0.00001391,0.00000536,0.00000122,-0.00003422,0.
 00000161,0.00000033,0.00001609,0.00001693,-0.00000083,0.00000227,0.000
 00596,-0.00000069,-0.00000802,-0.00000365,0.00000095,0.00000346,-0.000
 02448,0.00000141,-0.00000099,-0.00000026,-0.00000305,0.00000651,-0.000
 00797,-0.00000234,-0.00000849,0.00001971,-0.00000249,-0.00000100,-0.00
 000075,0.00000308,0.00000013,0.00000062,0.00000095,0.00001420,-0.00000
 139,0.00000024,-0.00000997,0.00000775,-0.00000073,-0.00001552,-0.00000
 131,-0.00000283,0.00001824,0.00001053,0.00000166,-0.00000090,0.0000001
 8,0.00000036,0.00001922,-0.00002224,-0.00000790,-0.00000139,0.00000010
 ,0.00000328,-0.00005288,0.00002278,-0.00000525,0.00000052,-0.00000066,
 0.00000099,0.00000105,-0.00000003,0.00000577,0.00002922,-0.00000586,-0
 .00000004,-0.00001077,0.00000954,-0.00000068,-0.00001227,-0.00000479,-
 0.00000015,0.00001172,0.00000304,0.00000019,0.00000041,-0.00000029,0.0
 0000046,0.00000859,-0.00000649,-0.00000114,0.00000018,-0.00000055,0.00
 000052,-0.00002178,0.00000260,0.00000021,-0.00000025,0.00000069,0.0000
 0038,-0.00000047,-0.00000034,0.00000027,0.00007680,-0.00009048,0.00002
 095,-0.00013120,0.00005523,-0.00003576,-0.00004418,0.00001670,-0.00000
 383,0.00010147,0.00005179,-0.00019984,0.00000466,0.00000480,0.00002042
 ,-0.00005814,-0.00002305,0.00029306,0.00000324,0.00001589,0.00000260,0
 .00002027,-0.00000718,-0.00000018,-0.00000932,0.00000870,-0.00000017,0
 .00000036,-0.00000565,-0.00000028,0.00000692,0.00000334,0.00000002,0.0
 0000017,-0.00000013,0.00000048,-0.00001345,-0.00000362,-0.00000163,-0.
 00000041,0.00000054,0.00000037,0.00001280,0.00000468,0.00000195,-0.000
 00274,-0.00000457,-0.00000069,-0.00000531,0.00000112,-0.00000053,0.000
 00206,0.00000095,0.00000018,0.00000024,0.00000025,0.,0.00000238,0.0000
 0140,0.00000030,0.00000034,0.00000009,0.00000011,-0.00000356,-0.000001
 53,-0.00000043,-0.00000014,-0.00000055,0.00000018,-0.00000048,0.000000
 37,-0.00000007,-0.00000045,-0.00000017,-0.00000003,0.00139460,-0.00065
 092,0.00716096,0.00057557,0.00198573,0.00323748,0.00002813,0.00016199,
 -0.00066315,-0.00352974,-0.02945121,-0.03949903,-0.00064409,0.00064153
 ,-0.00406688,0.00138683,-0.00139719,0.00652026,-0.00012941,0.00014921,
 -0.00105305,-0.00189236,-0.00439315,0.00270257,0.00340314,0.03253914,0
 .02904179,0.00004400,-0.00003539,-0.00000027,-0.00004530,0.00003344,0.
 00000030,-0.00012832,0.00003213,0.00000069,0.00002605,0.00006563,-0.00
 000024,0.00002797,0.00001394,-0.00000237,-0.00008733,0.00000198,0.0000
 0043,0.00000092,-0.00010073,0.00000019,0.00001189,-0.00002037,-0.00000
 067,0.00002234,-0.00004394,-0.00000096,-0.00003006,0.00007396,-0.00000
 045,0.00000185,-0.00000275,0.00000042,0.00000050,0.00000399,0.00000026
 ,0.00011729,-0.00000832,0.00000433,-0.00006297,0.00004273,0.00000221,-
 0.00009065,-0.00003909,-0.00000099,0.00005113,0.00006319,-0.00000540,-
 0.00000541,0.00000409,0.00000091,0.00006591,-0.00006265,0.00000851,-0.
 00000558,0.00000322,-0.00000062,-0.00016225,-0.00002838,-0.00001415,0.
 00000698,-0.00000108,0.00000038,0.00000650,-0.00001570,-0.00000060,0.0
 0012758,-0.00002596,-0.00000140,-0.00004872,0.00004305,0.00000048,-0.0
 0005899,-0.00001912,-0.00000021,0.00006001,0.00001541,0.00000307,0.000
 00125,-0.00000151,-0.00000032,0.00003947,-0.00003243,-0.00000361,0.000
 00154,-0.00000366,0.00000088,-0.00011205,0.00001619,0.00000129,-0.0000
 0118,0.00000263,0.00000012,-0.00000280,-0.00000196,-0.00000001,0.00008
 306,-0.00000408,-0.00001825,-0.00020238,0.00007727,0.00001163,-0.00023
 320,-0.00024632,0.00007416,0.00009744,0.00010718,-0.00006906,-0.000026
 65,-0.00001346,0.00000371,-0.00046391,0.00119426,0.00015506,0.00000765
 ,-0.00001011,0.00002015,0.00010958,-0.00004037,-0.00000101,-0.00005247
 ,0.00004641,0.00000188,0.00000172,-0.00003178,-0.00000110,0.00004034,0
 .00002213,-0.00000029,0.00000117,-0.00000020,0.00000074,-0.00007571,-0
 .00002412,-0.00000582,-0.00000188,0.00000291,0.00000081,0.00007198,0.0
 0002752,0.00000888,-0.00001599,-0.00002586,-0.00000286,-0.00002925,0.0
 0000691,-0.00000208,0.00001237,0.00000437,0.00000079,0.00000156,0.0000
 0166,-0.00000045,0.00001363,0.00000871,0.00000188,0.00000158,0.0000003
 5,0.00000018,-0.00001980,-0.00000896,-0.00000124,-0.00000107,-0.000003
 04,0.00000052,-0.00000254,0.00000209,-0.00000077,-0.00000277,-0.000000
 83,-0.00000052,-0.00392695,-0.00327812,0.00071539,-0.00033459,-0.00103
 621,-0.00017509,-0.01700965,0.02280323,0.00531169,0.00099535,-0.002039
 56,0.00039587,0.00000914,0.00013414,-0.00010088,-0.19794503,0.13351037
 ,0.03468887,0.00097899,-0.00022069,-0.00055118,0.00886851,-0.00665586,
 -0.00146454,0.00031165,-0.00042520,-0.00005039,0.20823248,-0.00003580,
 0.00002757,0.00000022,0.00004042,-0.00002289,-0.00000016,0.00011087,-0
 .00001933,0.00000023,-0.00003359,-0.00005403,-0.00000101,-0.00001554,-
 0.00001413,0.00000023,0.00005355,0.00000086,0.00000099,-0.00000561,0.0
 0008061,-0.00000042,-0.00000511,0.00001094,0.00000049,-0.00001983,0.00
 003162,0.00000060,0.00002605,-0.00006073,0.00000035,0.00000024,0.00000
 159,-0.00000042,-0.00000066,-0.00000287,-0.00000016,-0.00007534,0.0000
 0596,-0.00000357,0.00003894,-0.00003678,0.00000255,0.00006413,0.000019
 40,0.00000041,-0.00006233,-0.00003197,0.00000214,0.00000233,-0.0000010
 5,-0.00000045,-0.00005551,0.00005995,-0.00000304,0.00000281,-0.0000006
 7,0.00000109,0.00013425,-0.00005768,-0.00000386,-0.00000334,0.00000072
 ,-0.00000008,-0.00000178,-0.00000041,-0.00000014,-0.00010533,0.0000209
 2,0.00000133,0.00003952,-0.00003530,-0.00000021,0.00004811,0.00001632,
 0.00000007,-0.00004796,-0.00001222,-0.00000243,-0.00000124,0.00000110,
 0.00000026,-0.00003176,0.00002597,0.00000293,-0.00000114,0.00000272,-0
 .00000069,0.00008863,-0.00001266,-0.00000110,0.00000092,-0.00000219,-0
 .00000009,0.00000216,0.00000167,0.,-0.00017890,0.00015686,-0.00000585,
 0.00015889,-0.00012278,0.00001316,-0.00013663,0.00003182,0.00002644,-0
 .00011579,-0.00010657,-0.00001989,0.00000540,0.00000232,0.00000029,0.0
 0002752,0.00047815,-0.00001884,-0.00001057,-0.00002407,0.00000825,-0.0
 0008653,0.00003198,0.00000077,0.00004127,-0.00003679,-0.00000147,-0.00
 000132,0.00002472,0.00000078,-0.00003144,-0.00001699,0.00000024,-0.000
 00098,0.00000021,-0.00000060,0.00005936,0.00001876,0.00000487,0.000001
 51,-0.00000238,-0.00000068,-0.00005668,-0.00002173,-0.00000731,0.00001
 256,0.00002050,0.00000235,0.00002303,-0.00000539,0.00000172,-0.0000096
 9,-0.00000361,-0.00000072,-0.00000115,-0.00000137,0.00000038,-0.000010
 71,-0.00000681,-0.00000161,-0.00000132,-0.00000029,-0.00000016,0.00001
 558,0.00000712,0.00000111,0.00000082,0.00000240,-0.00000042,0.00000209
 ,-0.00000173,0.00000063,0.00000228,0.00000071,0.00000040,-0.00281381,0
 .00063993,-0.00056638,-0.00088471,-0.00014797,0.00013995,-0.00797339,0
 .00927015,0.00172368,-0.00329967,-0.00493266,-0.00116994,0.00012464,0.
 00003675,0.00012954,0.13386436,-0.18823779,-0.03435260,0.00039158,0.00
 086130,0.00066394,0.02422214,-0.01514569,-0.00495128,0.00124705,-0.000
 95582,-0.00025829,-0.14442181,0.19725507,-0.00001562,0.00001153,-0.000
 00093,0.00001939,-0.00001050,0.00000104,0.00004678,-0.00000738,0.00000
 033,-0.00001612,-0.00002150,0.00000116,-0.00000493,-0.00000626,-0.0000
 0213,0.00001877,0.00000079,-0.00000018,-0.00000299,0.00003236,0.000000
 91,-0.00000166,0.00000382,-0.00000108,-0.00000960,0.00001465,-0.000002
 33,0.00001082,-0.00002459,-0.00000138,0.00000036,0.00000050,0.00000155
 ,-0.00000019,-0.00000123,0.00000095,-0.00002720,0.00000371,-0.00000018
 ,0.00001663,-0.00001186,-0.00000274,0.00002425,0.00000521,-0.00000072,
 -0.00002306,-0.00001911,0.00001332,0.00000169,-0.00000078,-0.00000103,
 -0.00002002,0.00002969,-0.00001297,0.00000120,0.00000010,0.00000121,0.
 00007081,-0.00000739,0.00001018,-0.00000132,0.00000093,0.00000214,-0.0
 0000183,-0.00000047,-0.00000001,-0.00004280,0.00000871,0.00000041,0.00
 001536,-0.00001415,-0.00000089,0.00001993,0.00000662,-0.00000008,-0.00
 001931,-0.00000464,-0.00000127,-0.00000050,0.00000038,0.00000050,-0.00
 001248,0.00000981,0.00000041,-0.00000051,0.00000121,0.00000012,0.00003
 453,-0.00000526,-0.00000023,0.00000037,-0.00000079,0.00000024,0.000000
 89,0.00000069,0.00000031,-0.00004560,-0.00000508,-0.00004621,0.0000744
 3,-0.00005059,0.00001635,0.00000630,0.00012246,-0.00014867,-0.00004532
 ,-0.00004316,-0.00000717,0.00000606,-0.00000009,0.00000363,0.00023200,
 -0.00000758,0.00025250,0.00002724,-0.00001049,0.00000021,-0.00003372,0
 .00001254,0.00000032,0.00001614,-0.00001416,-0.00000121,-0.00000074,0.
 00000957,0.00000032,-0.00001212,-0.00000645,0.00000044,-0.00000046,0.0
 0000010,0.00000006,0.00002288,0.00000737,0.00000078,0.00000063,-0.0000
 0092,-0.00000005,-0.00002161,-0.00000845,-0.00000196,0.00000493,0.0000
 0736,0.00000047,0.00000867,-0.00000193,0.00000042,-0.00000361,-0.00000
 105,-0.00000001,-0.00000057,-0.00000059,0.00000024,-0.00000405,-0.0000
 0250,-0.00000050,-0.00000045,-0.00000011,0.00000002,0.00000587,0.00000
 260,-0.00000003,0.00000036,0.00000093,-0.00000006,0.00000079,-0.000000
 63,0.00000029,0.00000086,0.00000022,0.00000022,0.00049033,-0.00055519,
 0.00736300,-0.00022312,0.00009842,-0.00065167,0.00128430,-0.00167000,0
 .00264858,0.00041965,-0.00131661,0.00647177,-0.00011383,0.00012523,-0.
 00103058,0.03465088,-0.03482435,-0.04417500,-0.00046731,0.00083052,-0.
 00417070,0.00248959,-0.00111315,0.00252378,0.00015478,-0.00010589,0.00
 023422,-0.03850316,0.03798824,0.03430956,0.00003689,-0.00003089,-0.000
 00012,-0.00003563,0.00001537,0.00000024,-0.00012410,0.00002472,-0.0000
 0004,0.00003029,0.00006513,0.00000050,0.00002834,0.00002142,-0.0000002
 3,-0.00008250,-0.00000144,-0.00000006,0.00000485,-0.00009928,0.0000001
 6,0.00000784,-0.00001652,-0.00000040,0.00001358,-0.00002766,-0.0000004
 2,-0.00003078,0.00007435,-0.00000037,0.00000170,-0.00000334,0.00000034
 ,0.00000086,0.00000317,0.00000002,0.00011149,-0.00001199,0.00000183,-0
 .00005827,0.00004512,0.00000001,-0.00008089,-0.00003443,-0.00000019,0.
 00006449,0.00004639,-0.00000720,-0.00000280,0.00000290,0.00000087,0.00
 006283,-0.00005293,0.00000589,-0.00000487,0.00000314,-0.00000107,-0.00
 015291,0.00001189,0.00000140,0.00000618,0.00000148,0.00000043,0.000003
 73,-0.00001071,-0.00000016,0.00012405,-0.00002489,-0.00000130,-0.00004
 780,0.00004167,0.00000034,-0.00005814,-0.00001927,-0.00000017,0.000058
 83,0.00001517,0.00000309,0.00000136,-0.00000146,-0.00000028,0.00003963
 ,-0.00003197,-0.00000348,0.00000132,-0.00000300,0.00000087,-0.00010974
 ,0.00001693,0.00000094,-0.00000128,0.00000270,0.00000017,-0.00000257,-
 0.00000198,0.00000004,0.00023180,-0.00006747,-0.00003358,-0.00015785,0
 .00007552,0.00000151,-0.00001533,-0.00005151,0.00004632,0.00006411,0.0
 0001222,-0.00000787,-0.00000600,-0.00001295,0.00001140,-0.00002967,-0.
 00007537,-0.00009327,0.00000895,0.00002937,-0.00000567,0.00010842,-0.0
 0004018,-0.00000155,-0.00005238,0.00004564,0.00000193,0.00000116,-0.00
 003094,-0.00000110,0.00003986,0.00002207,-0.00000026,0.00000136,-0.000
 00006,0.00000083,-0.00007473,-0.00002430,-0.00000541,-0.00000192,0.000
 00288,0.00000082,0.00007173,0.00002683,0.00000842,-0.00001580,-0.00002
 492,-0.00000216,-0.00002878,0.00000664,-0.00000200,0.00001240,0.000003
 88,0.00000073,0.00000128,0.00000187,-0.00000062,0.00001367,0.00000866,
 0.00000163,0.00000162,0.00000030,0.00000009,-0.00001962,-0.00000877,-0
 .00000087,-0.00000095,-0.00000291,0.00000044,-0.00000271,0.00000221,-0
 .00000088,-0.00000288,-0.00000089,-0.00000059,0.00061898,0.00059695,-0
 .00006735,-0.00100078,0.00411967,0.00131207,0.00171777,-0.00145815,0.0
 0031627,-0.01696857,-0.00977942,0.00079942,-0.00095500,-0.00050061,0.0
 0006202,-0.00358041,0.00067847,0.00065034,-0.00031179,0.00005642,0.000
 08633,-0.31286171,-0.07715003,0.01964371,0.00088209,0.00034140,-0.0004
 5376,0.00073408,-0.00031605,-0.00050263,0.33177163,0.00001233,-0.00000
 995,0.00000008,-0.00001294,0.00000706,-0.00000033,-0.00003857,0.000008
 02,0.00000006,0.00000991,0.00001941,-0.00000069,0.00000810,0.00000549,
 0.00000061,-0.00002349,0.00000017,0.00000008,0.00000005,-0.00002840,-0
 .00000007,0.00000337,-0.00000505,0.00000017,0.00000587,-0.00001013,0.0
 0000021,-0.00000866,0.00002109,0.00000019,-0.00000011,-0.00000065,-0.0
 0000023,0.00000019,0.00000102,-0.00000013,0.00003068,-0.00000297,-0.00
 000109,-0.00001473,0.00001557,0.00000131,-0.00002378,-0.00000741,-0.00
 000100,0.00002081,0.00000964,0.00000148,-0.00000071,0.00000040,0.00000
 013,0.00001277,-0.00002417,0.00000450,-0.00000158,0.00000070,-0.000000
 39,-0.00003983,0.00002070,-0.00000827,0.00000133,0.00000079,-0.0000006
 3,0.00000188,-0.00000008,-0.00000046,0.00003818,-0.00000752,-0.0000000
 2,-0.00001454,0.00001269,0.00000027,-0.00001755,-0.00000605,-0.0000000
 6,0.00001768,0.00000462,0.00000104,0.00000041,-0.00000040,-0.00000018,
 0.00001182,-0.00000940,-0.00000085,0.00000042,-0.00000093,0.00000018,-
 0.00003283,0.00000470,0.00000008,-0.00000034,0.00000083,0.,-0.00000080
 ,-0.00000058,-0.00000007,-0.00002973,-0.00000700,0.00001961,0.00002269
 ,0.00010493,-0.00000040,-0.00005102,-0.00002809,-0.00001630,0.00000219
 ,-0.00002922,0.00003971,-0.00000581,0.00000218,-0.00000923,-0.00004213
 ,0.00008737,0.00014393,0.00001080,0.00006491,-0.00004525,0.00003208,-0
 .00001183,-0.00000042,-0.00001549,0.00001365,0.00000069,0.00000063,-0.
 00000928,-0.00000035,0.00001178,0.00000619,-0.00000013,0.00000037,-0.0
 0000007,0.00000018,-0.00002228,-0.00000700,-0.00000145,-0.00000057,0.0
 0000088,0.00000021,0.00002140,0.00000810,0.00000240,-0.00000476,-0.000
 00744,-0.00000062,-0.00000869,0.00000203,-0.00000058,0.00000362,0.0000
 0118,0.00000013,0.00000047,0.00000052,-0.00000017,0.00000405,0.0000025
 4,0.00000047,0.00000048,0.00000008,0.00000003,-0.00000587,-0.00000258,
 -0.00000021,-0.00000030,-0.00000094,0.00000013,-0.00000076,0.00000063,
 -0.00000024,-0.00000086,-0.00000025,-0.00000018,0.00058304,-0.00107860
 ,-0.00013853,0.00284698,-0.00260707,-0.00141021,-0.00015748,-0.0054476
 4,-0.00148975,0.02142425,0.01045393,-0.00115475,0.00107712,0.00033908,
 -0.00012054,-0.03048452,-0.00332829,0.00259158,-0.00149999,-0.00035219
 ,0.00004791,-0.07718820,-0.08208624,0.00190455,-0.00052705,0.00085166,
 0.00062484,0.00056456,0.00098871,0.00053862,0.08349370,0.08205594,-0.0
 0001144,0.00000836,-0.00000114,0.00001388,-0.00000778,0.00000108,0.000
 03139,-0.00000656,0.00000016,-0.00000860,-0.00001662,0.00000100,-0.000
 00788,-0.00000462,-0.00000190,0.00002147,0.00000058,-0.00000047,0.0000
 0081,0.00002417,0.00000099,-0.00000379,0.00000368,-0.00000179,-0.00000
 750,0.00001023,-0.00000193,0.00000706,-0.00001789,-0.00000159,0.000000
 56,0.00000029,0.00000186,-0.00000002,-0.00000079,0.00000085,-0.0000259
 7,0.00000336,0.00000413,0.00001490,-0.00001396,0.00000006,0.00002210,0
 .00000809,0.00000207,-0.00002318,-0.00001268,-0.00001968,0.00000114,-0
 .00000015,0.00000238,-0.00001936,0.00002157,0.00000994,0.00000047,0.00
 000013,-0.00000234,0.00005497,-0.00000391,0.00001042,0.00000031,0.0000
 0167,0.00000311,-0.00000073,-0.00000167,-0.00000441,-0.00002980,0.0000
 0625,0.,0.00001090,-0.00000983,-0.00000070,0.00001385,0.00000472,-0.00
 000011,-0.00001354,-0.00000333,-0.00000098,-0.00000027,0.00000031,0.00
 000051,-0.00000908,0.00000671,0.00000007,-0.00000032,0.00000081,0.0000
 0018,0.00002451,-0.00000364,0.00000002,0.00000028,-0.00000059,0.000000
 26,0.00000060,0.00000043,0.00000031,-0.00007574,-0.00011278,-0.0000248
 5,-0.00008951,0.00001242,-0.00011034,-0.00004004,0.00008934,0.00005360
 ,0.00011332,-0.00003308,0.00000380,0.00000869,0.00001346,0.00004635,0.
 00004530,0.00012913,-0.00086192,0.00001563,0.00004874,0.00009869,-0.00
 002367,0.00000873,0.00000024,0.00001150,-0.00000992,-0.00000104,-0.000
 00066,0.00000676,0.00000032,-0.00000855,-0.00000442,0.00000034,-0.0000
 0035,0.00000004,0.00000011,0.00001612,0.00000512,0.00000018,0.00000049
 ,-0.00000063,0.00000002,-0.00001526,-0.00000578,-0.00000102,0.00000349
 ,0.00000483,0.00000008,0.00000611,-0.00000133,0.00000021,-0.00000248,-
 0.00000053,0.00000009,-0.00000043,-0.00000041,0.00000022,-0.00000289,-
 0.00000171,-0.00000023,-0.00000030,-0.00000006,0.00000007,0.00000414,0
 .00000172,-0.00000026,0.00000023,0.00000066,0.,0.00000054,-0.00000042,
 0.00000023,0.00000057,0.00000014,0.00000019,-0.00013245,-0.00016478,-0
 .00074368,0.00132453,-0.00139972,0.00634603,0.00029893,-0.00130575,0.0
 0630017,0.00437270,0.00203679,0.00192680,0.00028690,0.00000771,0.00034
 027,-0.00306800,-0.00073966,0.00226115,-0.00014768,-0.00017390,0.00033
 897,0.01977635,0.00188310,-0.03432131,-0.00053318,0.00057727,-0.003705
 39,-0.00043574,0.00065322,-0.00360002,-0.02176635,-0.00152162,0.025649
 57\\0.,-0.00000041,-0.00000009,0.00000014,0.00000016,0.00000041,0.0000
 0002,0.00000049,0.00000037,-0.00000022,-0.00000028,-0.00000060,0.00000
 022,0.00000028,-0.00000061,-0.00000002,-0.00000049,0.00000041,-0.00000
 014,-0.00000016,0.00000045,0.,0.00000041,-0.00000011,-0.00000009,-0.00
 000003,-0.00000008,0.00000009,0.00000003,-0.00000009,0.00000011,-0.000
 00001,0.00000004,-0.00000011,0.00000001,0.00000005,-0.00000031,0.00000
 005,-0.00000010,0.00000024,-0.00000001,-0.00000004,0.00000005,-0.00000
 009,0.00000001,-0.00000026,-0.00000002,-0.00000002,-0.00000004,-0.0000
 0007,0.00000003,0.00000007,-0.00000023,0.,0.00000002,0.,0.00000001,0.,
 0.00000022,0.,0.00000005,-0.00000011,0.,0.00000006,0.,0.,0.00000031,-0
 .00000005,-0.00000010,-0.00000024,0.00000001,-0.00000003,-0.00000005,0
 .00000009,0.00000001,0.00000026,0.00000002,-0.00000002,0.00000004,0.00
 000007,0.00000003,-0.00000007,0.00000023,0.,-0.00000002,0.,0.00000001,
 0.,-0.00000022,0.,-0.00000005,0.00000011,0.,-0.00000006,0.,0.,0.000000
 20,-0.00000029,-0.00000005,-0.00000024,0.,0.00000003,-0.00000004,0.000
 00011,0.00000005,0.00000019,0.00000017,0.,-0.00000005,-0.00000011,0.,-
 0.00000015,-0.00000035,-0.00000003,-0.00000004,-0.00000014,0.00000002,
 -0.00000020,0.00000030,-0.00000005,0.00000024,0.,0.00000003,0.00000004
 ,-0.00000011,0.00000006,-0.00000019,-0.00000017,0.,0.00000005,0.000000
 11,0.,0.00000016,0.00000035,-0.00000004,0.00000004,0.00000014,0.000000
 02,0.00000009,0.,-0.00000002,-0.00000006,0.00000010,-0.00000001,-0.000
 00028,0.00000005,0.,0.00000001,0.00000020,0.,0.00000001,0.00000010,0.,
 0.00000021,0.00000023,-0.00000001,0.00000007,0.00000011,0.,-0.00000006
 ,0.,0.00000003,-0.00000002,0.00000008,0.,-0.00000001,0.00000014,0.,0.0
 0000001,0.00000012,0.,-0.00000009,0.,-0.00000002,0.00000006,-0.0000001
 0,-0.00000001,0.00000028,-0.00000005,0.,-0.00000001,-0.00000020,0.,-0.
 00000001,-0.00000010,0.,-0.00000021,-0.00000023,-0.00000001,-0.0000000
 7,-0.00000011,0.,0.00000006,0.,0.00000003,0.00000002,-0.00000008,0.,0.
 00000001,-0.00000014,0.,-0.00000001,-0.00000012,0.\\\@
 The archive entry for this job was punched.


 LIVE PURE, SPEAK TRUE, RIGHT WRONG, FOLLOW THE KING...
 ELSE, WHEREFORE BORN......
           IDYLLS OF THE KING, TENNYSON
 Job cpu time:       4 days  5 hours 13 minutes 34.9 seconds.
 Elapsed time:       0 days  4 hours 14 minutes  8.6 seconds.
 File lengths (MBytes):  RWF=  10783 Int=      0 D2E=      0 Chk=    103 Scr=      1
 Normal termination of Gaussian 16 at Tue Nov 21 15:07:56 2023.
