 Entering Gaussian System, Link 0=g16
 Initial command:
 /home/aderezen/G16/AVX2//g16/l1.exe "/lustre/scratch/natrosa/12384530/Gau-54548.inp" -scrdir="/lustre/scratch/natrosa/12384530/"
 Entering Link 1 = /home/aderezen/G16/AVX2//g16/l1.exe PID=     54549.
  
 Copyright (c) 1988-2019, Gaussian, Inc.  All Rights Reserved.
  
 This is part of the Gaussian(R) 16 program.  It is based on
 the Gaussian(R) 09 system (copyright 2009, Gaussian, Inc.),
 the Gaussian(R) 03 system (copyright 2003, Gaussian, Inc.),
 the Gaussian(R) 98 system (copyright 1998, Gaussian, Inc.),
 the Gaussian(R) 94 system (copyright 1995, Gaussian, Inc.),
 the Gaussian 92(TM) system (copyright 1992, Gaussian, Inc.),
 the Gaussian 90(TM) system (copyright 1990, Gaussian, Inc.),
 the Gaussian 88(TM) system (copyright 1988, Gaussian, Inc.),
 the Gaussian 86(TM) system (copyright 1986, Carnegie Mellon
 University), and the Gaussian 82(TM) system (copyright 1983,
 Carnegie Mellon University). Gaussian is a federally registered
 trademark of Gaussian, Inc.
  
 This software contains proprietary and confidential information,
 including trade secrets, belonging to Gaussian, Inc.
  
 This software is provided under written license and may be
 used, copied, transmitted, or stored only in accord with that
 written license.
  
 The following legend is applicable only to US Government
 contracts under FAR:
  
                    RESTRICTED RIGHTS LEGEND
  
 Use, reproduction and disclosure by the US Government is
 subject to restrictions as set forth in subparagraphs (a)
 and (c) of the Commercial Computer Software - Restricted
 Rights clause in FAR 52.227-19.
  
 Gaussian, Inc.
 340 Quinnipiac St., Bldg. 40, Wallingford CT 06492
  
  
 ---------------------------------------------------------------
 Warning -- This program may not be used in any manner that
 competes with the business of Gaussian, Inc. or will provide
 assistance to any competitor of Gaussian, Inc.  The licensee
 of this program is prohibited from giving any competitor of
 Gaussian, Inc. access to this program.  By using this program,
 the user acknowledges that Gaussian, Inc. is engaged in the
 business of creating and licensing software in the field of
 computational chemistry and represents and warrants to the
 licensee that it is not a competitor of Gaussian, Inc. and that
 it will not use this program in any manner prohibited above.
 ---------------------------------------------------------------
  

 Cite this work as:
 Gaussian 16, Revision C.01,
 M. J. Frisch, G. W. Trucks, H. B. Schlegel, G. E. Scuseria, 
 M. A. Robb, J. R. Cheeseman, G. Scalmani, V. Barone, 
 G. A. Petersson, H. Nakatsuji, X. Li, M. Caricato, A. V. Marenich, 
 J. Bloino, B. G. Janesko, R. Gomperts, B. Mennucci, H. P. Hratchian, 
 J. V. Ortiz, A. F. Izmaylov, J. L. Sonnenberg, D. Williams-Young, 
 F. Ding, F. Lipparini, F. Egidi, J. Goings, B. Peng, A. Petrone, 
 T. Henderson, D. Ranasinghe, V. G. Zakrzewski, J. Gao, N. Rega, 
 G. Zheng, W. Liang, M. Hada, M. Ehara, K. Toyota, R. Fukuda, 
 J. Hasegawa, M. Ishida, T. Nakajima, Y. Honda, O. Kitao, H. Nakai, 
 T. Vreven, K. Throssell, J. A. Montgomery, Jr., J. E. Peralta, 
 F. Ogliaro, M. J. Bearpark, J. J. Heyd, E. N. Brothers, K. N. Kudin, 
 V. N. Staroverov, T. A. Keith, R. Kobayashi, J. Normand, 
 K. Raghavachari, A. P. Rendell, J. C. Burant, S. S. Iyengar, 
 J. Tomasi, M. Cossi, J. M. Millam, M. Klene, C. Adamo, R. Cammi, 
 J. W. Ochterski, R. L. Martin, K. Morokuma, O. Farkas, 
 J. B. Foresman, and D. J. Fox, Gaussian, Inc., Wallingford CT, 2019.
 
 ******************************************
 Gaussian 16:  ES64L-G16RevC.01  3-Jul-2019
                21-Nov-2023 
 ******************************************
 %chk=SUB-11-CATION.chk
 %nprocshared=24
 Will use up to   24 processors via shared memory.
 %mem=5500MB
 ----------------------------------------------------
 # opt=tight freq b3lyp/6-31+g(d,p) geom=connectivity
 ----------------------------------------------------
 1/7=10,18=20,19=15,26=3,38=1,57=2/1,3;
 2/9=110,12=2,17=6,18=5,40=1/2;
 3/5=1,6=6,7=111,11=2,25=1,30=1,71=1,74=-5/1,2,3;
 4//1;
 5/5=2,38=5/2;
 6/7=2,8=2,9=2,10=2,28=1/1;
 7//1,2,3,16;
 1/7=10,18=20,19=15,26=3/3(2);
 2/9=110/2;
 99//99;
 2/9=110/2;
 3/5=1,6=6,7=111,11=2,25=1,30=1,71=1,74=-5/1,2,3;
 4/5=5,16=3,69=1/1;
 5/5=2,38=5/2;
 7//1,2,3,16;
 1/7=10,18=20,19=15,26=3/3(-5);
 2/9=110/2;
 6/7=2,8=2,9=2,10=2,19=2,28=1/1;
 99/9=1/99;
 -------
 Energy:
 -------
 Symbolic Z-matrix:
 Charge =  1 Multiplicity = 2
 N                     1.15938   1.78738  -0.00442 
 C                    -0.25794   1.79636  -0.00358 
 C                     1.70456   0.51792  -0.00436 
 C                     0.59696  -0.36859  -0.00308 
 C                    -0.59696   0.36859  -0.00308 
 C                    -1.70456  -0.51792  -0.00436 
 C                     0.25794  -1.79636  -0.00358 
 N                    -1.15938  -1.78738  -0.00441 
 O                    -0.92998   2.81568  -0.00326 
 O                     0.92998  -2.81568  -0.00325 
 H                    -1.67521  -2.65543  -0.00365 
 H                     1.67521   2.65543  -0.00366 
 C                    -3.10835  -0.25457  -0.00692 
 C                    -3.58967   1.08382  -0.00603 
 C                    -4.06779  -1.30289  -0.01136 
 C                    -4.94231   1.34867  -0.00971 
 H                    -2.88425   1.90878  -0.00078 
 C                    -5.4181   -1.03149  -0.01683 
 H                    -3.75714  -2.34277  -0.01335 
 C                    -5.9059    0.30459  -0.01697 
 H                    -5.26584   2.38289  -0.00288 
 H                    -6.11685  -1.86156  -0.02512 
 C                     3.10835   0.25457  -0.00692 
 C                     3.58967  -1.08382  -0.00603 
 C                     4.06779   1.30289  -0.01136 
 C                     4.94231  -1.34867  -0.0097 
 H                     2.88425  -1.90878  -0.00077 
 C                     5.4181    1.03149  -0.01684 
 H                     3.75714   2.34277  -0.01336 
 C                     5.9059   -0.30459  -0.01697 
 H                     5.26584  -2.38289  -0.00287 
 H                     6.11685   1.86156  -0.02513 
 C                    -7.31782   0.59361  -0.02405 
 C                    -7.94666   1.83788  -0.08271 
 S                    -8.5309   -0.67737   0.05022 
 C                    -9.3474    1.76845  -0.07531 
 H                    -7.40634   2.77429  -0.14747 
 C                    -9.84514   0.46877  -0.01243 
 H                    -9.98658   2.63972  -0.14611 
 C                     7.31782  -0.59361  -0.02404 
 C                     7.94666  -1.83788  -0.08271 
 S                     8.5309    0.67737   0.05023 
 C                     9.3474   -1.76845  -0.07532 
 H                     7.40634  -2.77429  -0.14747 
 C                     9.84514  -0.46877  -0.01243 
 H                     9.98658  -2.63972  -0.14611 
 C                     11.24027  -0.03718   0.008 
 C                     11.61294   1.26889  -0.37203 
 C                     12.25178  -0.93466   0.4122 
 C                     12.94841   1.66168  -0.35089 
 H                     10.85703   1.97244  -0.70849 
 C                     13.58605  -0.53792   0.42913 
 H                     11.98951  -1.93631   0.73628 
 C                     13.94078   0.76046   0.04815 
 H                     13.21678   2.66892  -0.65377 
 H                     14.35019  -1.23964   0.7486 
 H                     14.98186   1.06746   0.06279 
 C                    -11.24026   0.03718   0.008 
 C                    -11.61294  -1.26889  -0.37204 
 C                    -12.25178   0.93466   0.41221 
 C                    -12.94841  -1.66168  -0.3509 
 H                    -10.85703  -1.97244  -0.7085 
 C                    -13.58605   0.53792   0.42913 
 H                    -11.98951   1.93631   0.7363 
 C                    -13.94078  -0.76046   0.04815 
 H                    -13.21678  -2.66892  -0.65378 
 H                    -14.35019   1.23964   0.74861 
 H                    -14.98186  -1.06746   0.06279 
 

 GradGradGradGradGradGradGradGradGradGradGradGradGradGradGradGradGradGrad
 Berny optimization.
 Initialization pass.
                           ----------------------------
                           !    Initial Parameters    !
                           ! (Angstroms and Degrees)  !
 --------------------------                            --------------------------
 ! Name  Definition              Value          Derivative Info.                !
 --------------------------------------------------------------------------------
 ! R1    R(1,2)                  1.4173         estimate D2E/DX2                !
 ! R2    R(1,3)                  1.3816         estimate D2E/DX2                !
 ! R3    R(1,12)                 1.0097         estimate D2E/DX2                !
 ! R4    R(2,5)                  1.4675         estimate D2E/DX2                !
 ! R5    R(2,9)                  1.2209         estimate D2E/DX2                !
 ! R6    R(3,4)                  1.4187         estimate D2E/DX2                !
 ! R7    R(3,23)                 1.4283         estimate D2E/DX2                !
 ! R8    R(4,5)                  1.4032         estimate D2E/DX2                !
 ! R9    R(4,7)                  1.4675         estimate D2E/DX2                !
 ! R10   R(5,6)                  1.4187         estimate D2E/DX2                !
 ! R11   R(6,8)                  1.3816         estimate D2E/DX2                !
 ! R12   R(6,13)                 1.4283         estimate D2E/DX2                !
 ! R13   R(7,8)                  1.4173         estimate D2E/DX2                !
 ! R14   R(7,10)                 1.2209         estimate D2E/DX2                !
 ! R15   R(8,11)                 1.0097         estimate D2E/DX2                !
 ! R16   R(13,14)                1.4223         estimate D2E/DX2                !
 ! R17   R(13,15)                1.4211         estimate D2E/DX2                !
 ! R18   R(14,16)                1.3783         estimate D2E/DX2                !
 ! R19   R(14,17)                1.0854         estimate D2E/DX2                !
 ! R20   R(15,18)                1.3773         estimate D2E/DX2                !
 ! R21   R(15,19)                1.0853         estimate D2E/DX2                !
 ! R22   R(16,20)                1.4208         estimate D2E/DX2                !
 ! R23   R(16,21)                1.0837         estimate D2E/DX2                !
 ! R24   R(18,20)                1.4223         estimate D2E/DX2                !
 ! R25   R(18,22)                1.085          estimate D2E/DX2                !
 ! R26   R(20,33)                1.4412         estimate D2E/DX2                !
 ! R27   R(23,24)                1.4223         estimate D2E/DX2                !
 ! R28   R(23,25)                1.4211         estimate D2E/DX2                !
 ! R29   R(24,26)                1.3783         estimate D2E/DX2                !
 ! R30   R(24,27)                1.0854         estimate D2E/DX2                !
 ! R31   R(25,28)                1.3773         estimate D2E/DX2                !
 ! R32   R(25,29)                1.0853         estimate D2E/DX2                !
 ! R33   R(26,30)                1.4208         estimate D2E/DX2                !
 ! R34   R(26,31)                1.0837         estimate D2E/DX2                !
 ! R35   R(28,30)                1.4223         estimate D2E/DX2                !
 ! R36   R(28,32)                1.085          estimate D2E/DX2                !
 ! R37   R(30,40)                1.4412         estimate D2E/DX2                !
 ! R38   R(33,34)                1.3954         estimate D2E/DX2                !
 ! R39   R(33,35)                1.7585         estimate D2E/DX2                !
 ! R40   R(34,36)                1.4025         estimate D2E/DX2                !
 ! R41   R(34,37)                1.0831         estimate D2E/DX2                !
 ! R42   R(35,38)                1.7449         estimate D2E/DX2                !
 ! R43   R(36,38)                1.3932         estimate D2E/DX2                !
 ! R44   R(36,39)                1.0829         estimate D2E/DX2                !
 ! R45   R(38,58)                1.4605         estimate D2E/DX2                !
 ! R46   R(40,41)                1.3954         estimate D2E/DX2                !
 ! R47   R(40,42)                1.7585         estimate D2E/DX2                !
 ! R48   R(41,43)                1.4025         estimate D2E/DX2                !
 ! R49   R(41,44)                1.0831         estimate D2E/DX2                !
 ! R50   R(42,45)                1.7449         estimate D2E/DX2                !
 ! R51   R(43,45)                1.3932         estimate D2E/DX2                !
 ! R52   R(43,46)                1.0829         estimate D2E/DX2                !
 ! R53   R(45,47)                1.4605         estimate D2E/DX2                !
 ! R54   R(47,48)                1.4104         estimate D2E/DX2                !
 ! R55   R(47,49)                1.4114         estimate D2E/DX2                !
 ! R56   R(48,50)                1.3922         estimate D2E/DX2                !
 ! R57   R(48,51)                1.0861         estimate D2E/DX2                !
 ! R58   R(49,52)                1.3921         estimate D2E/DX2                !
 ! R59   R(49,53)                1.085          estimate D2E/DX2                !
 ! R60   R(50,54)                1.3987         estimate D2E/DX2                !
 ! R61   R(50,55)                1.0855         estimate D2E/DX2                !
 ! R62   R(52,54)                1.3988         estimate D2E/DX2                !
 ! R63   R(52,56)                1.0855         estimate D2E/DX2                !
 ! R64   R(54,57)                1.0855         estimate D2E/DX2                !
 ! R65   R(58,59)                1.4104         estimate D2E/DX2                !
 ! R66   R(58,60)                1.4114         estimate D2E/DX2                !
 ! R67   R(59,61)                1.3922         estimate D2E/DX2                !
 ! R68   R(59,62)                1.0861         estimate D2E/DX2                !
 ! R69   R(60,63)                1.3921         estimate D2E/DX2                !
 ! R70   R(60,64)                1.085          estimate D2E/DX2                !
 ! R71   R(61,65)                1.3987         estimate D2E/DX2                !
 ! R72   R(61,66)                1.0855         estimate D2E/DX2                !
 ! R73   R(63,65)                1.3988         estimate D2E/DX2                !
 ! R74   R(63,67)                1.0855         estimate D2E/DX2                !
 ! R75   R(65,68)                1.0855         estimate D2E/DX2                !
 ! A1    A(2,1,3)              113.6045         estimate D2E/DX2                !
 ! A2    A(2,1,12)             120.3577         estimate D2E/DX2                !
 ! A3    A(3,1,12)             126.0377         estimate D2E/DX2                !
 ! A4    A(1,2,5)              102.9945         estimate D2E/DX2                !
 ! A5    A(1,2,9)              123.7597         estimate D2E/DX2                !
 ! A6    A(5,2,9)              133.2458         estimate D2E/DX2                !
 ! A7    A(1,3,4)              105.4318         estimate D2E/DX2                !
 ! A8    A(1,3,23)             123.8669         estimate D2E/DX2                !
 ! A9    A(4,3,23)             130.7013         estimate D2E/DX2                !
 ! A10   A(3,4,5)              109.6333         estimate D2E/DX2                !
 ! A11   A(3,4,7)              142.0307         estimate D2E/DX2                !
 ! A12   A(5,4,7)              108.336          estimate D2E/DX2                !
 ! A13   A(2,5,4)              108.336          estimate D2E/DX2                !
 ! A14   A(2,5,6)              142.0307         estimate D2E/DX2                !
 ! A15   A(4,5,6)              109.6333         estimate D2E/DX2                !
 ! A16   A(5,6,8)              105.4318         estimate D2E/DX2                !
 ! A17   A(5,6,13)             130.7013         estimate D2E/DX2                !
 ! A18   A(8,6,13)             123.8669         estimate D2E/DX2                !
 ! A19   A(4,7,8)              102.9945         estimate D2E/DX2                !
 ! A20   A(4,7,10)             133.2458         estimate D2E/DX2                !
 ! A21   A(8,7,10)             123.7597         estimate D2E/DX2                !
 ! A22   A(6,8,7)              113.6045         estimate D2E/DX2                !
 ! A23   A(6,8,11)             126.0378         estimate D2E/DX2                !
 ! A24   A(7,8,11)             120.3577         estimate D2E/DX2                !
 ! A25   A(6,13,14)            120.4049         estimate D2E/DX2                !
 ! A26   A(6,13,15)            121.84           estimate D2E/DX2                !
 ! A27   A(14,13,15)           117.7552         estimate D2E/DX2                !
 ! A28   A(13,14,16)           120.8576         estimate D2E/DX2                !
 ! A29   A(13,14,17)           119.6868         estimate D2E/DX2                !
 ! A30   A(16,14,17)           119.4555         estimate D2E/DX2                !
 ! A31   A(13,15,18)           121.1012         estimate D2E/DX2                !
 ! A32   A(13,15,19)           120.9021         estimate D2E/DX2                !
 ! A33   A(18,15,19)           117.9965         estimate D2E/DX2                !
 ! A34   A(14,16,20)           121.6263         estimate D2E/DX2                !
 ! A35   A(14,16,21)           118.4473         estimate D2E/DX2                !
 ! A36   A(20,16,21)           119.926          estimate D2E/DX2                !
 ! A37   A(15,18,20)           121.421          estimate D2E/DX2                !
 ! A38   A(15,18,22)           118.7271         estimate D2E/DX2                !
 ! A39   A(20,18,22)           119.8515         estimate D2E/DX2                !
 ! A40   A(16,20,18)           117.2385         estimate D2E/DX2                !
 ! A41   A(16,20,33)           121.1361         estimate D2E/DX2                !
 ! A42   A(18,20,33)           121.6254         estimate D2E/DX2                !
 ! A43   A(3,23,24)            120.4048         estimate D2E/DX2                !
 ! A44   A(3,23,25)            121.84           estimate D2E/DX2                !
 ! A45   A(24,23,25)           117.7551         estimate D2E/DX2                !
 ! A46   A(23,24,26)           120.8577         estimate D2E/DX2                !
 ! A47   A(23,24,27)           119.6867         estimate D2E/DX2                !
 ! A48   A(26,24,27)           119.4555         estimate D2E/DX2                !
 ! A49   A(23,25,28)           121.1012         estimate D2E/DX2                !
 ! A50   A(23,25,29)           120.9021         estimate D2E/DX2                !
 ! A51   A(28,25,29)           117.9965         estimate D2E/DX2                !
 ! A52   A(24,26,30)           121.6262         estimate D2E/DX2                !
 ! A53   A(24,26,31)           118.4474         estimate D2E/DX2                !
 ! A54   A(30,26,31)           119.9259         estimate D2E/DX2                !
 ! A55   A(25,28,30)           121.421          estimate D2E/DX2                !
 ! A56   A(25,28,32)           118.7271         estimate D2E/DX2                !
 ! A57   A(30,28,32)           119.8515         estimate D2E/DX2                !
 ! A58   A(26,30,28)           117.2385         estimate D2E/DX2                !
 ! A59   A(26,30,40)           121.1361         estimate D2E/DX2                !
 ! A60   A(28,30,40)           121.6254         estimate D2E/DX2                !
 ! A61   A(20,33,34)           128.3551         estimate D2E/DX2                !
 ! A62   A(20,33,35)           122.0494         estimate D2E/DX2                !
 ! A63   A(34,33,35)           109.5954         estimate D2E/DX2                !
 ! A64   A(33,34,36)           113.9375         estimate D2E/DX2                !
 ! A65   A(33,34,37)           123.2745         estimate D2E/DX2                !
 ! A66   A(36,34,37)           122.778          estimate D2E/DX2                !
 ! A67   A(33,35,38)            92.4823         estimate D2E/DX2                !
 ! A68   A(34,36,38)           113.7815         estimate D2E/DX2                !
 ! A69   A(34,36,39)           123.3224         estimate D2E/DX2                !
 ! A70   A(38,36,39)           122.8645         estimate D2E/DX2                !
 ! A71   A(35,38,36)           110.2002         estimate D2E/DX2                !
 ! A72   A(35,38,58)           121.6587         estimate D2E/DX2                !
 ! A73   A(36,38,58)           128.1407         estimate D2E/DX2                !
 ! A74   A(30,40,41)           128.3551         estimate D2E/DX2                !
 ! A75   A(30,40,42)           122.0494         estimate D2E/DX2                !
 ! A76   A(41,40,42)           109.5953         estimate D2E/DX2                !
 ! A77   A(40,41,43)           113.9375         estimate D2E/DX2                !
 ! A78   A(40,41,44)           123.2745         estimate D2E/DX2                !
 ! A79   A(43,41,44)           122.778          estimate D2E/DX2                !
 ! A80   A(40,42,45)            92.4823         estimate D2E/DX2                !
 ! A81   A(41,43,45)           113.7815         estimate D2E/DX2                !
 ! A82   A(41,43,46)           123.3224         estimate D2E/DX2                !
 ! A83   A(45,43,46)           122.8645         estimate D2E/DX2                !
 ! A84   A(42,45,43)           110.2002         estimate D2E/DX2                !
 ! A85   A(42,45,47)           121.6586         estimate D2E/DX2                !
 ! A86   A(43,45,47)           128.1407         estimate D2E/DX2                !
 ! A87   A(45,47,48)           121.4864         estimate D2E/DX2                !
 ! A88   A(45,47,49)           120.0465         estimate D2E/DX2                !
 ! A89   A(48,47,49)           118.4671         estimate D2E/DX2                !
 ! A90   A(47,48,50)           120.7076         estimate D2E/DX2                !
 ! A91   A(47,48,51)           119.9635         estimate D2E/DX2                !
 ! A92   A(50,48,51)           119.3124         estimate D2E/DX2                !
 ! A93   A(47,49,52)           120.6085         estimate D2E/DX2                !
 ! A94   A(47,49,53)           119.9574         estimate D2E/DX2                !
 ! A95   A(52,49,53)           119.4177         estimate D2E/DX2                !
 ! A96   A(48,50,54)           120.2082         estimate D2E/DX2                !
 ! A97   A(48,50,55)           119.6519         estimate D2E/DX2                !
 ! A98   A(54,50,55)           120.1379         estimate D2E/DX2                !
 ! A99   A(49,52,54)           120.2825         estimate D2E/DX2                !
 ! A100  A(49,52,56)           119.6066         estimate D2E/DX2                !
 ! A101  A(54,52,56)           120.1085         estimate D2E/DX2                !
 ! A102  A(50,54,52)           119.7256         estimate D2E/DX2                !
 ! A103  A(50,54,57)           120.1388         estimate D2E/DX2                !
 ! A104  A(52,54,57)           120.1356         estimate D2E/DX2                !
 ! A105  A(38,58,59)           121.4864         estimate D2E/DX2                !
 ! A106  A(38,58,60)           120.0465         estimate D2E/DX2                !
 ! A107  A(59,58,60)           118.467          estimate D2E/DX2                !
 ! A108  A(58,59,61)           120.7076         estimate D2E/DX2                !
 ! A109  A(58,59,62)           119.9634         estimate D2E/DX2                !
 ! A110  A(61,59,62)           119.3124         estimate D2E/DX2                !
 ! A111  A(58,60,63)           120.6085         estimate D2E/DX2                !
 ! A112  A(58,60,64)           119.9574         estimate D2E/DX2                !
 ! A113  A(63,60,64)           119.4177         estimate D2E/DX2                !
 ! A114  A(59,61,65)           120.2082         estimate D2E/DX2                !
 ! A115  A(59,61,66)           119.6519         estimate D2E/DX2                !
 ! A116  A(65,61,66)           120.1379         estimate D2E/DX2                !
 ! A117  A(60,63,65)           120.2825         estimate D2E/DX2                !
 ! A118  A(60,63,67)           119.6066         estimate D2E/DX2                !
 ! A119  A(65,63,67)           120.1086         estimate D2E/DX2                !
 ! A120  A(61,65,63)           119.7257         estimate D2E/DX2                !
 ! A121  A(61,65,68)           120.1387         estimate D2E/DX2                !
 ! A122  A(63,65,68)           120.1356         estimate D2E/DX2                !
 ! D1    D(3,1,2,5)             -0.0047         estimate D2E/DX2                !
 ! D2    D(3,1,2,9)            179.987          estimate D2E/DX2                !
 ! D3    D(12,1,2,5)          -179.9185         estimate D2E/DX2                !
 ! D4    D(12,1,2,9)             0.0732         estimate D2E/DX2                !
 ! D5    D(2,1,3,4)             -0.0155         estimate D2E/DX2                !
 ! D6    D(2,1,3,23)           179.9125         estimate D2E/DX2                !
 ! D7    D(12,1,3,4)           179.8925         estimate D2E/DX2                !
 ! D8    D(12,1,3,23)           -0.1795         estimate D2E/DX2                !
 ! D9    D(1,2,5,4)              0.0235         estimate D2E/DX2                !
 ! D10   D(1,2,5,6)           -179.8608         estimate D2E/DX2                !
 ! D11   D(9,2,5,4)           -179.967          estimate D2E/DX2                !
 ! D12   D(9,2,5,6)              0.1487         estimate D2E/DX2                !
 ! D13   D(1,3,4,5)              0.0305         estimate D2E/DX2                !
 ! D14   D(1,3,4,7)            179.9139         estimate D2E/DX2                !
 ! D15   D(23,3,4,5)          -179.8906         estimate D2E/DX2                !
 ! D16   D(23,3,4,7)            -0.0072         estimate D2E/DX2                !
 ! D17   D(1,3,23,24)          179.9698         estimate D2E/DX2                !
 ! D18   D(1,3,23,25)           -0.0755         estimate D2E/DX2                !
 ! D19   D(4,3,23,24)           -0.1218         estimate D2E/DX2                !
 ! D20   D(4,3,23,25)          179.8329         estimate D2E/DX2                !
 ! D21   D(3,4,5,2)             -0.0343         estimate D2E/DX2                !
 ! D22   D(3,4,5,6)            179.8901         estimate D2E/DX2                !
 ! D23   D(7,4,5,2)           -179.9587         estimate D2E/DX2                !
 ! D24   D(7,4,5,6)             -0.0343         estimate D2E/DX2                !
 ! D25   D(3,4,7,8)           -179.8608         estimate D2E/DX2                !
 ! D26   D(3,4,7,10)             0.1486         estimate D2E/DX2                !
 ! D27   D(5,4,7,8)              0.0235         estimate D2E/DX2                !
 ! D28   D(5,4,7,10)          -179.967          estimate D2E/DX2                !
 ! D29   D(2,5,6,8)            179.9139         estimate D2E/DX2                !
 ! D30   D(2,5,6,13)            -0.0072         estimate D2E/DX2                !
 ! D31   D(4,5,6,8)              0.0306         estimate D2E/DX2                !
 ! D32   D(4,5,6,13)          -179.8906         estimate D2E/DX2                !
 ! D33   D(5,6,8,7)             -0.0155         estimate D2E/DX2                !
 ! D34   D(5,6,8,11)           179.8926         estimate D2E/DX2                !
 ! D35   D(13,6,8,7)           179.9125         estimate D2E/DX2                !
 ! D36   D(13,6,8,11)           -0.1794         estimate D2E/DX2                !
 ! D37   D(5,6,13,14)           -0.1219         estimate D2E/DX2                !
 ! D38   D(5,6,13,15)          179.8329         estimate D2E/DX2                !
 ! D39   D(8,6,13,14)          179.9697         estimate D2E/DX2                !
 ! D40   D(8,6,13,15)           -0.0755         estimate D2E/DX2                !
 ! D41   D(4,7,8,6)             -0.0047         estimate D2E/DX2                !
 ! D42   D(4,7,8,11)          -179.9185         estimate D2E/DX2                !
 ! D43   D(10,7,8,6)           179.987          estimate D2E/DX2                !
 ! D44   D(10,7,8,11)            0.0732         estimate D2E/DX2                !
 ! D45   D(6,13,14,16)         179.9408         estimate D2E/DX2                !
 ! D46   D(6,13,14,17)          -0.1586         estimate D2E/DX2                !
 ! D47   D(15,13,14,16)         -0.0158         estimate D2E/DX2                !
 ! D48   D(15,13,14,17)        179.8848         estimate D2E/DX2                !
 ! D49   D(6,13,15,18)        -179.8518         estimate D2E/DX2                !
 ! D50   D(6,13,15,19)          -0.0254         estimate D2E/DX2                !
 ! D51   D(14,13,15,18)          0.1042         estimate D2E/DX2                !
 ! D52   D(14,13,15,19)        179.9306         estimate D2E/DX2                !
 ! D53   D(13,14,16,20)         -0.117          estimate D2E/DX2                !
 ! D54   D(13,14,16,21)        179.6397         estimate D2E/DX2                !
 ! D55   D(17,14,16,20)        179.9822         estimate D2E/DX2                !
 ! D56   D(17,14,16,21)         -0.2611         estimate D2E/DX2                !
 ! D57   D(13,15,18,20)         -0.0611         estimate D2E/DX2                !
 ! D58   D(13,15,18,22)        179.6976         estimate D2E/DX2                !
 ! D59   D(19,15,18,20)       -179.8925         estimate D2E/DX2                !
 ! D60   D(19,15,18,22)         -0.1338         estimate D2E/DX2                !
 ! D61   D(14,16,20,18)          0.1578         estimate D2E/DX2                !
 ! D62   D(14,16,20,33)       -179.8473         estimate D2E/DX2                !
 ! D63   D(21,16,20,18)       -179.5953         estimate D2E/DX2                !
 ! D64   D(21,16,20,33)          0.3996         estimate D2E/DX2                !
 ! D65   D(15,18,20,16)         -0.0686         estimate D2E/DX2                !
 ! D66   D(15,18,20,33)        179.9365         estimate D2E/DX2                !
 ! D67   D(22,18,20,16)       -179.8246         estimate D2E/DX2                !
 ! D68   D(22,18,20,33)          0.1805         estimate D2E/DX2                !
 ! D69   D(16,20,33,34)          3.0224         estimate D2E/DX2                !
 ! D70   D(16,20,33,35)       -176.7955         estimate D2E/DX2                !
 ! D71   D(18,20,33,34)       -176.9829         estimate D2E/DX2                !
 ! D72   D(18,20,33,35)          3.1992         estimate D2E/DX2                !
 ! D73   D(3,23,24,26)         179.9408         estimate D2E/DX2                !
 ! D74   D(3,23,24,27)          -0.1588         estimate D2E/DX2                !
 ! D75   D(25,23,24,26)         -0.0157         estimate D2E/DX2                !
 ! D76   D(25,23,24,27)        179.8847         estimate D2E/DX2                !
 ! D77   D(3,23,25,28)        -179.8517         estimate D2E/DX2                !
 ! D78   D(3,23,25,29)          -0.0254         estimate D2E/DX2                !
 ! D79   D(24,23,25,28)          0.1042         estimate D2E/DX2                !
 ! D80   D(24,23,25,29)        179.9305         estimate D2E/DX2                !
 ! D81   D(23,24,26,30)         -0.1171         estimate D2E/DX2                !
 ! D82   D(23,24,26,31)        179.6396         estimate D2E/DX2                !
 ! D83   D(27,24,26,30)        179.9823         estimate D2E/DX2                !
 ! D84   D(27,24,26,31)         -0.2611         estimate D2E/DX2                !
 ! D85   D(23,25,28,30)         -0.0612         estimate D2E/DX2                !
 ! D86   D(23,25,28,32)        179.6976         estimate D2E/DX2                !
 ! D87   D(29,25,28,30)       -179.8924         estimate D2E/DX2                !
 ! D88   D(29,25,28,32)         -0.1336         estimate D2E/DX2                !
 ! D89   D(24,26,30,28)          0.1578         estimate D2E/DX2                !
 ! D90   D(24,26,30,40)       -179.8472         estimate D2E/DX2                !
 ! D91   D(31,26,30,28)       -179.5953         estimate D2E/DX2                !
 ! D92   D(31,26,30,40)          0.3997         estimate D2E/DX2                !
 ! D93   D(25,28,30,26)         -0.0685         estimate D2E/DX2                !
 ! D94   D(25,28,30,40)        179.9365         estimate D2E/DX2                !
 ! D95   D(32,28,30,26)       -179.8246         estimate D2E/DX2                !
 ! D96   D(32,28,30,40)          0.1804         estimate D2E/DX2                !
 ! D97   D(26,30,40,41)          3.0226         estimate D2E/DX2                !
 ! D98   D(26,30,40,42)       -176.7951         estimate D2E/DX2                !
 ! D99   D(28,30,40,41)       -176.9826         estimate D2E/DX2                !
 ! D100  D(28,30,40,42)          3.1996         estimate D2E/DX2                !
 ! D101  D(20,33,34,36)        179.8523         estimate D2E/DX2                !
 ! D102  D(20,33,34,37)          0.9712         estimate D2E/DX2                !
 ! D103  D(35,33,34,36)         -0.3116         estimate D2E/DX2                !
 ! D104  D(35,33,34,37)       -179.1927         estimate D2E/DX2                !
 ! D105  D(20,33,35,38)       -179.6822         estimate D2E/DX2                !
 ! D106  D(34,33,35,38)          0.4694         estimate D2E/DX2                !
 ! D107  D(33,34,36,38)         -0.0766         estimate D2E/DX2                !
 ! D108  D(33,34,36,39)       -178.0842         estimate D2E/DX2                !
 ! D109  D(37,34,36,38)        178.8108         estimate D2E/DX2                !
 ! D110  D(37,34,36,39)          0.8032         estimate D2E/DX2                !
 ! D111  D(33,35,38,36)         -0.5132         estimate D2E/DX2                !
 ! D112  D(33,35,38,58)        179.6986         estimate D2E/DX2                !
 ! D113  D(34,36,38,35)          0.4315         estimate D2E/DX2                !
 ! D114  D(34,36,38,58)       -179.7977         estimate D2E/DX2                !
 ! D115  D(39,36,38,35)        178.4495         estimate D2E/DX2                !
 ! D116  D(39,36,38,58)         -1.7797         estimate D2E/DX2                !
 ! D117  D(35,38,58,59)        -21.8534         estimate D2E/DX2                !
 ! D118  D(35,38,58,60)        158.2557         estimate D2E/DX2                !
 ! D119  D(36,38,58,59)        158.3993         estimate D2E/DX2                !
 ! D120  D(36,38,58,60)        -21.4915         estimate D2E/DX2                !
 ! D121  D(30,40,41,43)        179.8523         estimate D2E/DX2                !
 ! D122  D(30,40,41,44)          0.9713         estimate D2E/DX2                !
 ! D123  D(42,40,41,43)         -0.3117         estimate D2E/DX2                !
 ! D124  D(42,40,41,44)       -179.1927         estimate D2E/DX2                !
 ! D125  D(30,40,42,45)       -179.6822         estimate D2E/DX2                !
 ! D126  D(41,40,42,45)          0.4694         estimate D2E/DX2                !
 ! D127  D(40,41,43,45)         -0.0766         estimate D2E/DX2                !
 ! D128  D(40,41,43,46)       -178.0842         estimate D2E/DX2                !
 ! D129  D(44,41,43,45)        178.8107         estimate D2E/DX2                !
 ! D130  D(44,41,43,46)          0.8031         estimate D2E/DX2                !
 ! D131  D(40,42,45,43)         -0.5133         estimate D2E/DX2                !
 ! D132  D(40,42,45,47)        179.6986         estimate D2E/DX2                !
 ! D133  D(41,43,45,42)          0.4316         estimate D2E/DX2                !
 ! D134  D(41,43,45,47)       -179.7977         estimate D2E/DX2                !
 ! D135  D(46,43,45,42)        178.4495         estimate D2E/DX2                !
 ! D136  D(46,43,45,47)         -1.7797         estimate D2E/DX2                !
 ! D137  D(42,45,47,48)        -21.8531         estimate D2E/DX2                !
 ! D138  D(42,45,47,49)        158.2559         estimate D2E/DX2                !
 ! D139  D(43,45,47,48)        158.3996         estimate D2E/DX2                !
 ! D140  D(43,45,47,49)        -21.4913         estimate D2E/DX2                !
 ! D141  D(45,47,48,50)       -179.7736         estimate D2E/DX2                !
 ! D142  D(45,47,48,51)         -1.2623         estimate D2E/DX2                !
 ! D143  D(49,47,48,50)          0.119          estimate D2E/DX2                !
 ! D144  D(49,47,48,51)        178.6303         estimate D2E/DX2                !
 ! D145  D(45,47,49,52)        179.6484         estimate D2E/DX2                !
 ! D146  D(45,47,49,53)         -1.8344         estimate D2E/DX2                !
 ! D147  D(48,47,49,52)         -0.2458         estimate D2E/DX2                !
 ! D148  D(48,47,49,53)        178.2715         estimate D2E/DX2                !
 ! D149  D(47,48,50,54)          0.0683         estimate D2E/DX2                !
 ! D150  D(47,48,50,55)        179.5582         estimate D2E/DX2                !
 ! D151  D(51,48,50,54)       -178.4526         estimate D2E/DX2                !
 ! D152  D(51,48,50,55)          1.0373         estimate D2E/DX2                !
 ! D153  D(47,49,52,54)          0.1858         estimate D2E/DX2                !
 ! D154  D(47,49,52,56)        179.6342         estimate D2E/DX2                !
 ! D155  D(53,49,52,54)       -178.3394         estimate D2E/DX2                !
 ! D156  D(53,49,52,56)          1.109          estimate D2E/DX2                !
 ! D157  D(48,50,54,52)         -0.1321         estimate D2E/DX2                !
 ! D158  D(48,50,54,57)        179.9085         estimate D2E/DX2                !
 ! D159  D(55,50,54,52)       -179.6196         estimate D2E/DX2                !
 ! D160  D(55,50,54,57)          0.4211         estimate D2E/DX2                !
 ! D161  D(49,52,54,50)          0.0055         estimate D2E/DX2                !
 ! D162  D(49,52,54,57)        179.9648         estimate D2E/DX2                !
 ! D163  D(56,52,54,50)       -179.4402         estimate D2E/DX2                !
 ! D164  D(56,52,54,57)          0.5192         estimate D2E/DX2                !
 ! D165  D(38,58,59,61)       -179.7736         estimate D2E/DX2                !
 ! D166  D(38,58,59,62)         -1.2622         estimate D2E/DX2                !
 ! D167  D(60,58,59,61)          0.119          estimate D2E/DX2                !
 ! D168  D(60,58,59,62)        178.6303         estimate D2E/DX2                !
 ! D169  D(38,58,60,63)        179.6484         estimate D2E/DX2                !
 ! D170  D(38,58,60,64)         -1.8344         estimate D2E/DX2                !
 ! D171  D(59,58,60,63)         -0.2457         estimate D2E/DX2                !
 ! D172  D(59,58,60,64)        178.2715         estimate D2E/DX2                !
 ! D173  D(58,59,61,65)          0.0683         estimate D2E/DX2                !
 ! D174  D(58,59,61,66)        179.5583         estimate D2E/DX2                !
 ! D175  D(62,59,61,65)       -178.4526         estimate D2E/DX2                !
 ! D176  D(62,59,61,66)          1.0373         estimate D2E/DX2                !
 ! D177  D(58,60,63,65)          0.1858         estimate D2E/DX2                !
 ! D178  D(58,60,63,67)        179.6342         estimate D2E/DX2                !
 ! D179  D(64,60,63,65)       -178.3394         estimate D2E/DX2                !
 ! D180  D(64,60,63,67)          1.1091         estimate D2E/DX2                !
 ! D181  D(59,61,65,63)         -0.1321         estimate D2E/DX2                !
 ! D182  D(59,61,65,68)        179.9085         estimate D2E/DX2                !
 ! D183  D(66,61,65,63)       -179.6196         estimate D2E/DX2                !
 ! D184  D(66,61,65,68)          0.421          estimate D2E/DX2                !
 ! D185  D(60,63,65,61)          0.0055         estimate D2E/DX2                !
 ! D186  D(60,63,65,68)        179.9649         estimate D2E/DX2                !
 ! D187  D(67,63,65,61)       -179.4402         estimate D2E/DX2                !
 ! D188  D(67,63,65,68)          0.5192         estimate D2E/DX2                !
 --------------------------------------------------------------------------------
 Trust Radius=3.00D-01 FncErr=1.00D-07 GrdErr=1.00D-06 EigMax=2.50D+02 EigMin=1.00D-04
 Number of steps in this run=    395 maximum allowed number of steps=    408.
 GradGradGradGradGradGradGradGradGradGradGradGradGradGradGradGradGradGrad

 Stoichiometry    C38H24N2O2S2(1+,2)
 Framework group  C1[X(C38H24N2O2S2)]
 Deg. of freedom   198
 Full point group                 C1      NOp   1
 Largest Abelian subgroup         C1      NOp   1
 Largest concise Abelian subgroup C1      NOp   1
                         Standard orientation:                         
 ---------------------------------------------------------------------
 Center     Atomic      Atomic             Coordinates (Angstroms)
 Number     Number       Type             X           Y           Z
 ---------------------------------------------------------------------
      1          7           0        1.159380    1.787380   -0.004415
      2          6           0       -0.257939    1.796356   -0.003584
      3          6           0        1.704562    0.517923   -0.004360
      4          6           0        0.596957   -0.368592   -0.003077
      5          6           0       -0.596957    0.368592   -0.003079
      6          6           0       -1.704562   -0.517923   -0.004359
      7          6           0        0.257939   -1.796355   -0.003575
      8          7           0       -1.159380   -1.787379   -0.004407
      9          8           0       -0.929977    2.815678   -0.003260
     10          8           0        0.929977   -2.815678   -0.003246
     11          1           0       -1.675211   -2.655427   -0.003653
     12          1           0        1.675212    2.655428   -0.003664
     13          6           0       -3.108353   -0.254568   -0.006920
     14          6           0       -3.589667    1.083824   -0.006034
     15          6           0       -4.067788   -1.302887   -0.011359
     16          6           0       -4.942310    1.348668   -0.009708
     17          1           0       -2.884254    1.908783   -0.000783
     18          6           0       -5.418104   -1.031490   -0.016834
     19          1           0       -3.757136   -2.342766   -0.013353
     20          6           0       -5.905901    0.304587   -0.016969
     21          1           0       -5.265840    2.382893   -0.002883
     22          1           0       -6.116853   -1.861558   -0.025119
     23          6           0        3.108353    0.254569   -0.006919
     24          6           0        3.589667   -1.083823   -0.006029
     25          6           0        4.067788    1.302887   -0.011362
     26          6           0        4.942310   -1.348668   -0.009702
     27          1           0        2.884253   -1.908782   -0.000774
     28          6           0        5.418104    1.031490   -0.016837
     29          1           0        3.757136    2.342766   -0.013361
     30          6           0        5.905901   -0.304587   -0.016967
     31          1           0        5.265840   -2.382892   -0.002872
     32          1           0        6.116853    1.861558   -0.025125
     33          6           0       -7.317820    0.593613   -0.024045
     34          6           0       -7.946664    1.837878   -0.082707
     35         16           0       -8.530901   -0.677368    0.050222
     36          6           0       -9.347400    1.768452   -0.075313
     37          1           0       -7.406341    2.774285   -0.147466
     38          6           0       -9.845137    0.468770   -0.012431
     39          1           0       -9.986585    2.639715   -0.146105
     40          6           0        7.317820   -0.593613   -0.024044
     41          6           0        7.946664   -1.837878   -0.082708
     42         16           0        8.530902    0.677368    0.050226
     43          6           0        9.347399   -1.768453   -0.075315
     44          1           0        7.406340   -2.774285   -0.147470
     45          6           0        9.845137   -0.468771   -0.012431
     46          1           0        9.986584   -2.639716   -0.146109
     47          6           0       11.240265   -0.037182    0.008001
     48          6           0       11.612938    1.268887   -0.372034
     49          6           0       12.251783   -0.934660    0.412198
     50          6           0       12.948406    1.661682   -0.350893
     51          1           0       10.857029    1.972439   -0.708485
     52          6           0       13.586047   -0.537924    0.429125
     53          1           0       11.989508   -1.936313    0.736281
     54          6           0       13.940780    0.760460    0.048148
     55          1           0       13.216782    2.668922   -0.653767
     56          1           0       14.350193   -1.239640    0.748595
     57          1           0       14.981855    1.067463    0.062790
     58          6           0      -11.240264    0.037181    0.008001
     59          6           0      -11.612939   -1.268885   -0.372042
     60          6           0      -12.251782    0.934657    0.412206
     61          6           0      -12.948407   -1.661680   -0.350901
     62          1           0      -10.857030   -1.972435   -0.708499
     63          6           0      -13.586046    0.537921    0.429133
     64          1           0      -11.989506    1.936308    0.736295
     65          6           0      -13.940779   -0.760460    0.048148
     66          1           0      -13.216784   -2.668918   -0.653781
     67          1           0      -14.350191    1.239635    0.748608
     68          1           0      -14.981855   -1.067463    0.062789
 ---------------------------------------------------------------------
 Rotational constants (GHZ):           0.4797855           0.0125284           0.0122211
 Standard basis: 6-31+G(d,p) (6D, 7F)
 There are   964 symmetry adapted cartesian basis functions of A   symmetry.
 There are   964 symmetry adapted basis functions of A   symmetry.
   964 basis functions,  1624 primitive gaussians,   964 cartesian basis functions
   157 alpha electrons      156 beta electrons
       nuclear repulsion energy      4421.1328685994 Hartrees.
 NAtoms=   68 NActive=   68 NUniq=   68 SFac= 1.00D+00 NAtFMM=   60 NAOKFM=T Big=T
 Integral buffers will be    131072 words long.
 Raffenetti 2 integral format.
 Two-electron integral symmetry is turned on.
 One-electron integrals computed using PRISM.
 NBasis=   964 RedAO= T EigKep=  1.31D-06  NBF=   964
 NBsUse=   949 1.00D-06 EigRej=  7.98D-07 NBFU=   949
 ExpMin= 4.05D-02 ExpMax= 2.19D+04 ExpMxC= 3.30D+03 IAcc=3 IRadAn=         5 AccDes= 0.00D+00
 Harris functional with IExCor=  402 and IRadAn=       5 diagonalized for initial guess.
 HarFok:  IExCor=  402 AccDes= 0.00D+00 IRadAn=         5 IDoV= 1 UseB2=F ITyADJ=14
 ICtDFT=  3500011 ScaDFX=  1.000000  1.000000  1.000000  1.000000
 FoFCou: FMM=F IPFlag=           0 FMFlag=      100000 FMFlg1=        2001
         NFxFlg=           0 DoJE=T BraDBF=F KetDBF=T FulRan=T
         wScrn=  0.000000 ICntrl=       500 IOpCl=  0 I1Cent=   200000004 NGrid=           0
         NMat0=    1 NMatS0=      1 NMatT0=    0 NMatD0=    1 NMtDS0=    0 NMtDT0=    0
 Petite list used in FoFCou.
 Initial guess <Sx>= 0.0000 <Sy>= 0.0000 <Sz>= 0.5000 <S**2>= 0.7500 S= 0.5000
 Requested convergence on RMS density matrix=1.00D-08 within 128 cycles.
 Requested convergence on MAX density matrix=1.00D-06.
 Requested convergence on             energy=1.00D-06.
 No special actions if energy rises.
 Restarting incremental Fock formation.
 SCF Done:  E(UB3LYP) =  -2518.74108465     A.U. after   26 cycles
            NFock= 26  Conv=0.69D-08     -V/T= 2.0077
 <Sx>= 0.0000 <Sy>= 0.0000 <Sz>= 0.5000 <S**2>= 0.7625 S= 0.5063
 <L.S>=  0.00000000000    
 Annihilation of the first spin contaminant:
 S**2 before annihilation     0.7625,   after     0.7501

 **********************************************************************

            Population analysis using the SCF Density.

 **********************************************************************

 Orbital symmetries:
 Alpha Orbitals:
       Occupied  (A) (A) (A) (A) (A) (A) (A) (A) (A) (A) (A) (A)
                 (A) (A) (A) (A) (A) (A) (A) (A) (A) (A) (A) (A)
                 (A) (A) (A) (A) (A) (A) (A) (A) (A) (A) (A) (A)
                 (A) (A) (A) (A) (A) (A) (A) (A) (A) (A) (A) (A)
                 (A) (A) (A) (A) (A) (A) (A) (A) (A) (A) (A) (A)
                 (A) (A) (A) (A) (A) (A) (A) (A) (A) (A) (A) (A)
                 (A) (A) (A) (A) (A) (A) (A) (A) (A) (A) (A) (A)
                 (A) (A) (A) (A) (A) (A) (A) (A) (A) (A) (A) (A)
                 (A) (A) (A) (A) (A) (A) (A) (A) (A) (A) (A) (A)
                 (A) (A) (A) (A) (A) (A) (A) (A) (A) (A) (A) (A)
                 (A) (A) (A) (A) (A) (A) (A) (A) (A) (A) (A) (A)
                 (A) (A) (A) (A) (A) (A) (A) (A) (A) (A) (A) (A)
                 (A) (A) (A) (A) (A) (A) (A) (A) (A) (A) (A) (A)
                 (A)
       Virtual   (A) (A) (A) (A) (A) (A) (A) (A) (A) (A) (A) (A)
                 (A) (A) (A) (A) (A) (A) (A) (A) (A) (A) (A) (A)
                 (A) (A) (A) (A) (A) (A) (A) (A) (A) (A) (A) (A)
                 (A) (A) (A) (A) (A) (A) (A) (A) (A) (A) (A) (A)
                 (A) (A) (A) (A) (A) (A) (A) (A) (A) (A) (A) (A)
                 (A) (A) (A) (A) (A) (A) (A) (A) (A) (A) (A) (A)
                 (A) (A) (A) (A) (A) (A) (A) (A) (A) (A) (A) (A)
                 (A) (A) (A) (A) (A) (A) (A) (A) (A) (A) (A) (A)
                 (A) (A) (A) (A) (A) (A) (A) (A) (A) (A) (A) (A)
                 (A) (A) (A) (A) (A) (A) (A) (A) (A) (A) (A) (A)
                 (A) (A) (A) (A) (A) (A) (A) (A) (A) (A) (A) (A)
                 (A) (A) (A) (A) (A) (A) (A) (A) (A) (A) (A) (A)
                 (A) (A) (A) (A) (A) (A) (A) (A) (A) (A) (A) (A)
                 (A) (A) (A) (A) (A) (A) (A) (A) (A) (A) (A) (A)
                 (A) (A) (A) (A) (A) (A) (A) (A) (A) (A) (A) (A)
                 (A) (A) (A) (A) (A) (A) (A) (A) (A) (A) (A) (A)
                 (A) (A) (A) (A) (A) (A) (A) (A) (A) (A) (A) (A)
                 (A) (A) (A) (A) (A) (A) (A) (A) (A) (A) (A) (A)
                 (A) (A) (A) (A) (A) (A) (A) (A) (A) (A) (A) (A)
                 (A) (A) (A) (A) (A) (A) (A) (A) (A) (A) (A) (A)
                 (A) (A) (A) (A) (A) (A) (A) (A) (A) (A) (A) (A)
                 (A) (A) (A) (A) (A) (A) (A) (A) (A) (A) (A) (A)
                 (A) (A) (A) (A) (A) (A) (A) (A) (A) (A) (A) (A)
                 (A) (A) (A) (A) (A) (A) (A) (A) (A) (A) (A) (A)
                 (A) (A) (A) (A) (A) (A) (A) (A) (A) (A) (A) (A)
                 (A) (A) (A) (A) (A) (A) (A) (A) (A) (A) (A) (A)
                 (A) (A) (A) (A) (A) (A) (A) (A) (A) (A) (A) (A)
                 (A) (A) (A) (A) (A) (A) (A) (A) (A) (A) (A) (A)
                 (A) (A) (A) (A) (A) (A) (A) (A) (A) (A) (A) (A)
                 (A) (A) (A) (A) (A) (A) (A) (A) (A) (A) (A) (A)
                 (A) (A) (A) (A) (A) (A) (A) (A) (A) (A) (A) (A)
                 (A) (A) (A) (A) (A) (A) (A) (A) (A) (A) (A) (A)
                 (A) (A) (A) (A) (A) (A) (A) (A) (A) (A) (A) (A)
                 (A) (A) (A) (A) (A) (A) (A) (A) (A) (A) (A) (A)
                 (A) (A) (A) (A) (A) (A) (A) (A) (A) (A) (A) (A)
                 (A) (A) (A) (A) (A) (A) (A) (A) (A) (A) (A) (A)
                 (A) (A) (A) (A) (A) (A) (A) (A) (A) (A) (A) (A)
                 (A) (A) (A) (A) (A) (A) (A) (A) (A) (A) (A) (A)
                 (A) (A) (A) (A) (A) (A) (A) (A) (A) (A) (A) (A)
                 (A) (A) (A) (A) (A) (A) (A) (A) (A) (A) (A) (A)
                 (A) (A) (A) (A) (A) (A) (A) (A) (A) (A) (A) (A)
                 (A) (A) (A) (A) (A) (A) (A) (A) (A) (A) (A) (A)
                 (A) (A) (A) (A) (A) (A) (A) (A) (A) (A) (A) (A)
                 (A) (A) (A) (A) (A) (A) (A) (A) (A) (A) (A) (A)
                 (A) (A) (A) (A) (A) (A) (A) (A) (A) (A) (A) (A)
                 (A) (A) (A) (A) (A) (A) (A) (A) (A) (A) (A) (A)
                 (A) (A) (A) (A) (A) (A) (A) (A) (A) (A) (A) (A)
                 (A) (A) (A) (A) (A) (A) (A) (A) (A) (A) (A) (A)
                 (A) (A) (A) (A) (A) (A) (A) (A) (A) (A) (A) (A)
                 (A) (A) (A) (A) (A) (A) (A) (A) (A) (A) (A) (A)
                 (A) (A) (A) (A) (A) (A) (A) (A) (A) (A) (A) (A)
                 (A) (A) (A) (A) (A) (A) (A) (A) (A) (A) (A) (A)
                 (A) (A) (A) (A) (A) (A) (A) (A) (A) (A) (A) (A)
                 (A) (A) (A) (A) (A) (A) (A) (A) (A) (A) (A) (A)
                 (A) (A) (A) (A) (A) (A) (A) (A) (A) (A) (A) (A)
                 (A) (A) (A) (A) (A) (A) (A) (A) (A) (A) (A) (A)
                 (A) (A) (A) (A) (A) (A) (A) (A) (A) (A) (A) (A)
                 (A) (A) (A) (A) (A) (A) (A) (A) (A) (A) (A) (A)
                 (A) (A) (A) (A) (A) (A) (A) (A) (A) (A) (A) (A)
                 (A) (A) (A) (A) (A) (A) (A) (A) (A) (A) (A) (A)
                 (A) (A) (A) (A) (A) (A) (A) (A) (A) (A) (A) (A)
                 (A) (A) (A) (A) (A) (A) (A) (A) (A) (A) (A) (A)
                 (A) (A) (A) (A) (A) (A) (A) (A) (A) (A) (A) (A)
                 (A) (A) (A) (A) (A) (A) (A) (A) (A) (A) (A) (A)
                 (A) (A) (A) (A) (A) (A) (A) (A) (A) (A) (A) (A)
                 (A) (A) (A) (A) (A) (A) (A) (A) (A) (A) (A) (A)
 Beta  Orbitals:
       Occupied  (A) (A) (A) (A) (A) (A) (A) (A) (A) (A) (A) (A)
                 (A) (A) (A) (A) (A) (A) (A) (A) (A) (A) (A) (A)
                 (A) (A) (A) (A) (A) (A) (A) (A) (A) (A) (A) (A)
                 (A) (A) (A) (A) (A) (A) (A) (A) (A) (A) (A) (A)
                 (A) (A) (A) (A) (A) (A) (A) (A) (A) (A) (A) (A)
                 (A) (A) (A) (A) (A) (A) (A) (A) (A) (A) (A) (A)
                 (A) (A) (A) (A) (A) (A) (A) (A) (A) (A) (A) (A)
                 (A) (A) (A) (A) (A) (A) (A) (A) (A) (A) (A) (A)
                 (A) (A) (A) (A) (A) (A) (A) (A) (A) (A) (A) (A)
                 (A) (A) (A) (A) (A) (A) (A) (A) (A) (A) (A) (A)
                 (A) (A) (A) (A) (A) (A) (A) (A) (A) (A) (A) (A)
                 (A) (A) (A) (A) (A) (A) (A) (A) (A) (A) (A) (A)
                 (A) (A) (A) (A) (A) (A) (A) (A) (A) (A) (A) (A)
       Virtual   (A) (A) (A) (A) (A) (A) (A) (A) (A) (A) (A) (A)
                 (A) (A) (A) (A) (A) (A) (A) (A) (A) (A) (A) (A)
                 (A) (A) (A) (A) (A) (A) (A) (A) (A) (A) (A) (A)
                 (A) (A) (A) (A) (A) (A) (A) (A) (A) (A) (A) (A)
                 (A) (A) (A) (A) (A) (A) (A) (A) (A) (A) (A) (A)
                 (A) (A) (A) (A) (A) (A) (A) (A) (A) (A) (A) (A)
                 (A) (A) (A) (A) (A) (A) (A) (A) (A) (A) (A) (A)
                 (A) (A) (A) (A) (A) (A) (A) (A) (A) (A) (A) (A)
                 (A) (A) (A) (A) (A) (A) (A) (A) (A) (A) (A) (A)
                 (A) (A) (A) (A) (A) (A) (A) (A) (A) (A) (A) (A)
                 (A) (A) (A) (A) (A) (A) (A) (A) (A) (A) (A) (A)
                 (A) (A) (A) (A) (A) (A) (A) (A) (A) (A) (A) (A)
                 (A) (A) (A) (A) (A) (A) (A) (A) (A) (A) (A) (A)
                 (A) (A) (A) (A) (A) (A) (A) (A) (A) (A) (A) (A)
                 (A) (A) (A) (A) (A) (A) (A) (A) (A) (A) (A) (A)
                 (A) (A) (A) (A) (A) (A) (A) (A) (A) (A) (A) (A)
                 (A) (A) (A) (A) (A) (A) (A) (A) (A) (A) (A) (A)
                 (A) (A) (A) (A) (A) (A) (A) (A) (A) (A) (A) (A)
                 (A) (A) (A) (A) (A) (A) (A) (A) (A) (A) (A) (A)
                 (A) (A) (A) (A) (A) (A) (A) (A) (A) (A) (A) (A)
                 (A) (A) (A) (A) (A) (A) (A) (A) (A) (A) (A) (A)
                 (A) (A) (A) (A) (A) (A) (A) (A) (A) (A) (A) (A)
                 (A) (A) (A) (A) (A) (A) (A) (A) (A) (A) (A) (A)
                 (A) (A) (A) (A) (A) (A) (A) (A) (A) (A) (A) (A)
                 (A) (A) (A) (A) (A) (A) (A) (A) (A) (A) (A) (A)
                 (A) (A) (A) (A) (A) (A) (A) (A) (A) (A) (A) (A)
                 (A) (A) (A) (A) (A) (A) (A) (A) (A) (A) (A) (A)
                 (A) (A) (A) (A) (A) (A) (A) (A) (A) (A) (A) (A)
                 (A) (A) (A) (A) (A) (A) (A) (A) (A) (A) (A) (A)
                 (A) (A) (A) (A) (A) (A) (A) (A) (A) (A) (A) (A)
                 (A) (A) (A) (A) (A) (A) (A) (A) (A) (A) (A) (A)
                 (A) (A) (A) (A) (A) (A) (A) (A) (A) (A) (A) (A)
                 (A) (A) (A) (A) (A) (A) (A) (A) (A) (A) (A) (A)
                 (A) (A) (A) (A) (A) (A) (A) (A) (A) (A) (A) (A)
                 (A) (A) (A) (A) (A) (A) (A) (A) (A) (A) (A) (A)
                 (A) (A) (A) (A) (A) (A) (A) (A) (A) (A) (A) (A)
                 (A) (A) (A) (A) (A) (A) (A) (A) (A) (A) (A) (A)
                 (A) (A) (A) (A) (A) (A) (A) (A) (A) (A) (A) (A)
                 (A) (A) (A) (A) (A) (A) (A) (A) (A) (A) (A) (A)
                 (A) (A) (A) (A) (A) (A) (A) (A) (A) (A) (A) (A)
                 (A) (A) (A) (A) (A) (A) (A) (A) (A) (A) (A) (A)
                 (A) (A) (A) (A) (A) (A) (A) (A) (A) (A) (A) (A)
                 (A) (A) (A) (A) (A) (A) (A) (A) (A) (A) (A) (A)
                 (A) (A) (A) (A) (A) (A) (A) (A) (A) (A) (A) (A)
                 (A) (A) (A) (A) (A) (A) (A) (A) (A) (A) (A) (A)
                 (A) (A) (A) (A) (A) (A) (A) (A) (A) (A) (A) (A)
                 (A) (A) (A) (A) (A) (A) (A) (A) (A) (A) (A) (A)
                 (A) (A) (A) (A) (A) (A) (A) (A) (A) (A) (A) (A)
                 (A) (A) (A) (A) (A) (A) (A) (A) (A) (A) (A) (A)
                 (A) (A) (A) (A) (A) (A) (A) (A) (A) (A) (A) (A)
                 (A) (A) (A) (A) (A) (A) (A) (A) (A) (A) (A) (A)
                 (A) (A) (A) (A) (A) (A) (A) (A) (A) (A) (A) (A)
                 (A) (A) (A) (A) (A) (A) (A) (A) (A) (A) (A) (A)
                 (A) (A) (A) (A) (A) (A) (A) (A) (A) (A) (A) (A)
                 (A) (A) (A) (A) (A) (A) (A) (A) (A) (A) (A) (A)
                 (A) (A) (A) (A) (A) (A) (A) (A) (A) (A) (A) (A)
                 (A) (A) (A) (A) (A) (A) (A) (A) (A) (A) (A) (A)
                 (A) (A) (A) (A) (A) (A) (A) (A) (A) (A) (A) (A)
                 (A) (A) (A) (A) (A) (A) (A) (A) (A) (A) (A) (A)
                 (A) (A) (A) (A) (A) (A) (A) (A) (A) (A) (A) (A)
                 (A) (A) (A) (A) (A) (A) (A) (A) (A) (A) (A) (A)
                 (A) (A) (A) (A) (A) (A) (A) (A) (A) (A) (A) (A)
                 (A) (A) (A) (A) (A) (A) (A) (A) (A) (A) (A) (A)
                 (A) (A) (A) (A) (A) (A) (A) (A) (A) (A) (A) (A)
                 (A) (A) (A) (A) (A) (A) (A) (A) (A) (A) (A) (A)
                 (A) (A) (A) (A) (A) (A) (A) (A) (A) (A) (A) (A)
                 (A)
 The electronic state is 2-A.
 Alpha  occ. eigenvalues --  -89.01073 -89.01073 -19.24747 -19.24747 -14.49613
 Alpha  occ. eigenvalues --  -14.49613 -10.41353 -10.41353 -10.38188 -10.38187
 Alpha  occ. eigenvalues --  -10.33469 -10.33469 -10.33131 -10.33131 -10.33086
 Alpha  occ. eigenvalues --  -10.33086 -10.32566 -10.32566 -10.31781 -10.31727
 Alpha  occ. eigenvalues --  -10.31589 -10.31589 -10.30786 -10.30786 -10.30394
 Alpha  occ. eigenvalues --  -10.30394 -10.30354 -10.30354 -10.30192 -10.30192
 Alpha  occ. eigenvalues --  -10.29887 -10.29887 -10.29482 -10.29482 -10.28130
 Alpha  occ. eigenvalues --  -10.28130 -10.28127 -10.28127 -10.27666 -10.27666
 Alpha  occ. eigenvalues --  -10.27495 -10.27495 -10.27462 -10.27462  -8.06996
 Alpha  occ. eigenvalues --   -8.06996  -6.03426  -6.03426  -6.03052  -6.03052
 Alpha  occ. eigenvalues --   -6.02686  -6.02686  -1.16420  -1.15936  -1.09192
 Alpha  occ. eigenvalues --   -1.07754  -0.99532  -0.99528  -0.97299  -0.97296
 Alpha  occ. eigenvalues --   -0.94242  -0.94234  -0.92700  -0.90800  -0.90374
 Alpha  occ. eigenvalues --   -0.86929  -0.86556  -0.86281  -0.86086  -0.84573
 Alpha  occ. eigenvalues --   -0.84178  -0.83366  -0.82943  -0.82669  -0.81819
 Alpha  occ. eigenvalues --   -0.79517  -0.79032  -0.78034  -0.74104  -0.72930
 Alpha  occ. eigenvalues --   -0.72745  -0.72398  -0.70372  -0.69784  -0.69216
 Alpha  occ. eigenvalues --   -0.69139  -0.67896  -0.66086  -0.65489  -0.65138
 Alpha  occ. eigenvalues --   -0.64855  -0.64050  -0.63983  -0.63863  -0.62107
 Alpha  occ. eigenvalues --   -0.61738  -0.60007  -0.58611  -0.58372  -0.57949
 Alpha  occ. eigenvalues --   -0.57596  -0.57487  -0.56402  -0.56057  -0.55808
 Alpha  occ. eigenvalues --   -0.55342  -0.54785  -0.53930  -0.53847  -0.53794
 Alpha  occ. eigenvalues --   -0.53676  -0.53669  -0.53583  -0.52988  -0.52070
 Alpha  occ. eigenvalues --   -0.52052  -0.50866  -0.50735  -0.50478  -0.50427
 Alpha  occ. eigenvalues --   -0.50334  -0.49673  -0.49481  -0.49004  -0.48659
 Alpha  occ. eigenvalues --   -0.48469  -0.48060  -0.48045  -0.47788  -0.46222
 Alpha  occ. eigenvalues --   -0.45999  -0.45881  -0.45767  -0.44517  -0.44428
 Alpha  occ. eigenvalues --   -0.44031  -0.43991  -0.43389  -0.43381  -0.42196
 Alpha  occ. eigenvalues --   -0.42194  -0.39875  -0.39573  -0.38862  -0.38528
 Alpha  occ. eigenvalues --   -0.37297  -0.37090  -0.36981  -0.35804  -0.35719
 Alpha  occ. eigenvalues --   -0.35342  -0.35208  -0.33763  -0.33763  -0.31846
 Alpha  occ. eigenvalues --   -0.30272  -0.28745
 Alpha virt. eigenvalues --   -0.21342  -0.17146  -0.14971  -0.13035  -0.11914
 Alpha virt. eigenvalues --   -0.11656  -0.10466  -0.09631  -0.09483  -0.09237
 Alpha virt. eigenvalues --   -0.08856  -0.08299  -0.07269  -0.07137  -0.06948
 Alpha virt. eigenvalues --   -0.06808  -0.06578  -0.06267  -0.05849  -0.05416
 Alpha virt. eigenvalues --   -0.05221  -0.04988  -0.04976  -0.04399  -0.04303
 Alpha virt. eigenvalues --   -0.04099  -0.03780  -0.03680  -0.03506  -0.03368
 Alpha virt. eigenvalues --   -0.02982  -0.02789  -0.02715  -0.02219  -0.01961
 Alpha virt. eigenvalues --   -0.01890  -0.01776  -0.01374  -0.01210  -0.01151
 Alpha virt. eigenvalues --   -0.00732  -0.00547  -0.00447  -0.00323   0.00001
 Alpha virt. eigenvalues --    0.00029   0.00305   0.00330   0.00573   0.00955
 Alpha virt. eigenvalues --    0.01125   0.01176   0.01607   0.01762   0.01785
 Alpha virt. eigenvalues --    0.02222   0.02237   0.02532   0.02759   0.03168
 Alpha virt. eigenvalues --    0.03237   0.03352   0.03567   0.03826   0.04016
 Alpha virt. eigenvalues --    0.04178   0.04419   0.04534   0.04727   0.04868
 Alpha virt. eigenvalues --    0.04921   0.05103   0.05393   0.05482   0.05904
 Alpha virt. eigenvalues --    0.06038   0.06120   0.06174   0.06462   0.06706
 Alpha virt. eigenvalues --    0.07087   0.07148   0.07255   0.07286   0.07709
 Alpha virt. eigenvalues --    0.07775   0.07936   0.08046   0.08054   0.08374
 Alpha virt. eigenvalues --    0.08462   0.08647   0.08827   0.08960   0.09003
 Alpha virt. eigenvalues --    0.09051   0.09396   0.09603   0.09815   0.09823
 Alpha virt. eigenvalues --    0.10051   0.10059   0.10439   0.10612   0.10706
 Alpha virt. eigenvalues --    0.10720   0.10877   0.10963   0.11011   0.11277
 Alpha virt. eigenvalues --    0.11419   0.11548   0.11662   0.11920   0.12002
 Alpha virt. eigenvalues --    0.12193   0.12288   0.12540   0.12813   0.13076
 Alpha virt. eigenvalues --    0.13156   0.13314   0.13538   0.13839   0.13945
 Alpha virt. eigenvalues --    0.14089   0.14162   0.14237   0.14432   0.14546
 Alpha virt. eigenvalues --    0.14607   0.14869   0.14881   0.15134   0.15249
 Alpha virt. eigenvalues --    0.15479   0.15719   0.15831   0.15973   0.16087
 Alpha virt. eigenvalues --    0.16315   0.16491   0.16586   0.16643   0.16885
 Alpha virt. eigenvalues --    0.16974   0.16989   0.17176   0.17358   0.17444
 Alpha virt. eigenvalues --    0.17450   0.17759   0.17847   0.18080   0.18290
 Alpha virt. eigenvalues --    0.18394   0.18572   0.18579   0.18908   0.18910
 Alpha virt. eigenvalues --    0.19070   0.19127   0.19503   0.19734   0.19865
 Alpha virt. eigenvalues --    0.19942   0.20070   0.20317   0.20413   0.20506
 Alpha virt. eigenvalues --    0.20781   0.21037   0.21214   0.21329   0.21376
 Alpha virt. eigenvalues --    0.21652   0.21677   0.22000   0.22335   0.22647
 Alpha virt. eigenvalues --    0.22765   0.22919   0.23074   0.23288   0.23615
 Alpha virt. eigenvalues --    0.23775   0.24162   0.24209   0.24528   0.24828
 Alpha virt. eigenvalues --    0.24984   0.25103   0.25381   0.25475   0.25711
 Alpha virt. eigenvalues --    0.25742   0.26291   0.26421   0.26589   0.26651
 Alpha virt. eigenvalues --    0.26838   0.26921   0.27191   0.27264   0.27702
 Alpha virt. eigenvalues --    0.27876   0.27943   0.28039   0.28680   0.28742
 Alpha virt. eigenvalues --    0.29141   0.29584   0.30048   0.30520   0.30814
 Alpha virt. eigenvalues --    0.30861   0.31033   0.32256   0.32293   0.32710
 Alpha virt. eigenvalues --    0.32839   0.33297   0.33804   0.33824   0.34281
 Alpha virt. eigenvalues --    0.34315   0.34356   0.35073   0.36092   0.36626
 Alpha virt. eigenvalues --    0.36892   0.37103   0.38437   0.38979   0.40559
 Alpha virt. eigenvalues --    0.40897   0.41155   0.42123   0.42495   0.42969
 Alpha virt. eigenvalues --    0.43025   0.43477   0.44232   0.44695   0.44837
 Alpha virt. eigenvalues --    0.45714   0.45827   0.47178   0.47908   0.49228
 Alpha virt. eigenvalues --    0.49459   0.50016   0.50958   0.51098   0.52823
 Alpha virt. eigenvalues --    0.52946   0.53768   0.53961   0.54786   0.54820
 Alpha virt. eigenvalues --    0.55249   0.55352   0.56137   0.56714   0.57321
 Alpha virt. eigenvalues --    0.57490   0.57565   0.57710   0.57950   0.58009
 Alpha virt. eigenvalues --    0.58569   0.58583   0.58851   0.58929   0.60170
 Alpha virt. eigenvalues --    0.60229   0.60793   0.60829   0.61284   0.61602
 Alpha virt. eigenvalues --    0.61619   0.61994   0.62123   0.62641   0.62680
 Alpha virt. eigenvalues --    0.62852   0.62945   0.63283   0.63313   0.63698
 Alpha virt. eigenvalues --    0.63710   0.63947   0.64274   0.64799   0.65531
 Alpha virt. eigenvalues --    0.65728   0.65845   0.66009   0.66138   0.66436
 Alpha virt. eigenvalues --    0.66872   0.67230   0.67532   0.67742   0.68206
 Alpha virt. eigenvalues --    0.68667   0.68763   0.69341   0.69432   0.69493
 Alpha virt. eigenvalues --    0.70053   0.70151   0.70205   0.70746   0.70796
 Alpha virt. eigenvalues --    0.71302   0.71629   0.71675   0.71909   0.72549
 Alpha virt. eigenvalues --    0.72946   0.73514   0.73847   0.74319   0.74576
 Alpha virt. eigenvalues --    0.74576   0.74876   0.75045   0.75897   0.76210
 Alpha virt. eigenvalues --    0.76744   0.78433   0.78890   0.79054   0.79409
 Alpha virt. eigenvalues --    0.79928   0.81069   0.81514   0.82038   0.82164
 Alpha virt. eigenvalues --    0.82436   0.82599   0.83629   0.83984   0.84653
 Alpha virt. eigenvalues --    0.84959   0.85006   0.85454   0.85530   0.86360
 Alpha virt. eigenvalues --    0.86504   0.86849   0.87058   0.87070   0.87958
 Alpha virt. eigenvalues --    0.88371   0.88792   0.88926   0.89419   0.89709
 Alpha virt. eigenvalues --    0.89864   0.90985   0.91022   0.91450   0.92375
 Alpha virt. eigenvalues --    0.93170   0.93835   0.94134   0.94906   0.95046
 Alpha virt. eigenvalues --    0.95139   0.95287   0.95489   0.96315   0.96787
 Alpha virt. eigenvalues --    0.97886   0.98875   0.99601   0.99614   0.99942
 Alpha virt. eigenvalues --    1.00680   1.00815   1.01512   1.01690   1.01889
 Alpha virt. eigenvalues --    1.02356   1.02756   1.02924   1.03327   1.03505
 Alpha virt. eigenvalues --    1.04303   1.04446   1.05803   1.06081   1.06705
 Alpha virt. eigenvalues --    1.07083   1.07391   1.07606   1.08715   1.08859
 Alpha virt. eigenvalues --    1.09107   1.10127   1.10264   1.10314   1.10639
 Alpha virt. eigenvalues --    1.11705   1.11756   1.12306   1.12328   1.12687
 Alpha virt. eigenvalues --    1.13488   1.14080   1.14591   1.15303   1.15906
 Alpha virt. eigenvalues --    1.16337   1.16655   1.17034   1.17178   1.17503
 Alpha virt. eigenvalues --    1.17666   1.17832   1.18198   1.18548   1.18658
 Alpha virt. eigenvalues --    1.19335   1.19906   1.20260   1.20503   1.20647
 Alpha virt. eigenvalues --    1.22381   1.22389   1.22972   1.23013   1.23596
 Alpha virt. eigenvalues --    1.23661   1.24818   1.24902   1.25110   1.25222
 Alpha virt. eigenvalues --    1.26475   1.26723   1.26923   1.27262   1.27480
 Alpha virt. eigenvalues --    1.27645   1.27799   1.28423   1.28708   1.28849
 Alpha virt. eigenvalues --    1.29008   1.29191   1.29737   1.30431   1.30707
 Alpha virt. eigenvalues --    1.30767   1.31673   1.31709   1.31998   1.32439
 Alpha virt. eigenvalues --    1.32511   1.33207   1.33432   1.33630   1.34466
 Alpha virt. eigenvalues --    1.34575   1.35301   1.36430   1.36439   1.37185
 Alpha virt. eigenvalues --    1.37366   1.38493   1.38714   1.40183   1.41278
 Alpha virt. eigenvalues --    1.41908   1.41940   1.44159   1.44579   1.45360
 Alpha virt. eigenvalues --    1.46904   1.47261   1.47780   1.47875   1.48724
 Alpha virt. eigenvalues --    1.50036   1.52093   1.53127   1.54089   1.55514
 Alpha virt. eigenvalues --    1.57353   1.57678   1.58386   1.58896   1.62549
 Alpha virt. eigenvalues --    1.65686   1.65959   1.66122   1.66994   1.68934
 Alpha virt. eigenvalues --    1.69156   1.70289   1.70403   1.70780   1.71497
 Alpha virt. eigenvalues --    1.71899   1.73883   1.73963   1.74379   1.74389
 Alpha virt. eigenvalues --    1.74960   1.75007   1.75892   1.76319   1.76840
 Alpha virt. eigenvalues --    1.78645   1.78710   1.79724   1.80183   1.80342
 Alpha virt. eigenvalues --    1.80536   1.80650   1.80834   1.81483   1.81706
 Alpha virt. eigenvalues --    1.82027   1.82200   1.82611   1.83590   1.83703
 Alpha virt. eigenvalues --    1.84226   1.85361   1.85630   1.85834   1.86743
 Alpha virt. eigenvalues --    1.87018   1.87597   1.87738   1.88005   1.88063
 Alpha virt. eigenvalues --    1.89159   1.89433   1.90062   1.90109   1.90278
 Alpha virt. eigenvalues --    1.90625   1.90679   1.92160   1.92540   1.93069
 Alpha virt. eigenvalues --    1.93134   1.93510   1.93550   1.93750   1.93779
 Alpha virt. eigenvalues --    1.94074   1.94658   1.96571   1.96988   1.97495
 Alpha virt. eigenvalues --    1.97619   1.97862   1.98272   1.99629   1.99781
 Alpha virt. eigenvalues --    2.00680   2.00907   2.01188   2.01893   2.02630
 Alpha virt. eigenvalues --    2.04543   2.05489   2.07163   2.08262   2.09327
 Alpha virt. eigenvalues --    2.09363   2.09692   2.10869   2.11734   2.12782
 Alpha virt. eigenvalues --    2.12836   2.13808   2.13934   2.14098   2.14791
 Alpha virt. eigenvalues --    2.16548   2.16704   2.16824   2.17524   2.17608
 Alpha virt. eigenvalues --    2.20095   2.20206   2.20255   2.21022   2.21422
 Alpha virt. eigenvalues --    2.22864   2.22895   2.23192   2.23680   2.24948
 Alpha virt. eigenvalues --    2.25711   2.27169   2.27659   2.27887   2.29736
 Alpha virt. eigenvalues --    2.30191   2.30312   2.31130   2.31184   2.31579
 Alpha virt. eigenvalues --    2.31611   2.32499   2.32976   2.33137   2.33515
 Alpha virt. eigenvalues --    2.34119   2.34831   2.35170   2.35294   2.35768
 Alpha virt. eigenvalues --    2.36063   2.36287   2.36985   2.38534   2.39303
 Alpha virt. eigenvalues --    2.39355   2.39455   2.39801   2.40339   2.40914
 Alpha virt. eigenvalues --    2.41459   2.43050   2.43301   2.43390   2.43485
 Alpha virt. eigenvalues --    2.44615   2.44873   2.45405   2.46662   2.46928
 Alpha virt. eigenvalues --    2.47283   2.47603   2.48414   2.48508   2.48748
 Alpha virt. eigenvalues --    2.48905   2.49128   2.50021   2.50860   2.51246
 Alpha virt. eigenvalues --    2.51364   2.51456   2.51747   2.52040   2.53109
 Alpha virt. eigenvalues --    2.53167   2.53491   2.53863   2.53932   2.54246
 Alpha virt. eigenvalues --    2.54666   2.56138   2.56533   2.57008   2.57753
 Alpha virt. eigenvalues --    2.58135   2.58694   2.59376   2.59572   2.61272
 Alpha virt. eigenvalues --    2.61347   2.61801   2.62117   2.63933   2.65619
 Alpha virt. eigenvalues --    2.66059   2.67319   2.67339   2.69598   2.69971
 Alpha virt. eigenvalues --    2.70672   2.70893   2.70900   2.74919   2.75050
 Alpha virt. eigenvalues --    2.76598   2.78195   2.78372   2.79488   2.81919
 Alpha virt. eigenvalues --    2.83363   2.83850   2.86323   2.87091   2.87579
 Alpha virt. eigenvalues --    2.88540   2.88856   2.90472   2.93173   2.93215
 Alpha virt. eigenvalues --    2.94464   2.95166   2.95689   2.96658   2.98269
 Alpha virt. eigenvalues --    2.98296   2.98681   2.99366   2.99723   3.03935
 Alpha virt. eigenvalues --    3.09112   3.09746   3.10439   3.11270   3.11800
 Alpha virt. eigenvalues --    3.11983   3.17345   3.18032   3.19815   3.19815
 Alpha virt. eigenvalues --    3.20695   3.21348   3.21398   3.21527   3.22614
 Alpha virt. eigenvalues --    3.22687   3.23291   3.24685   3.29076   3.29206
 Alpha virt. eigenvalues --    3.29497   3.30168   3.32249   3.36578   3.36578
 Alpha virt. eigenvalues --    3.38678   3.45197   3.45660   3.45760   3.46284
 Alpha virt. eigenvalues --    3.47356   3.48034   3.58343   3.58410   3.73200
 Alpha virt. eigenvalues --    3.73420   3.81781   3.81783   3.89731   3.89816
 Alpha virt. eigenvalues --    4.15895   4.18617   4.18653   4.21010   4.21070
 Alpha virt. eigenvalues --    4.21678   4.22111   4.22220   4.22695   4.23385
 Alpha virt. eigenvalues --    4.23797   4.24617   4.24646   4.25451   4.26122
 Alpha virt. eigenvalues --    4.26264   4.28677   4.29926   4.30187   4.31483
 Alpha virt. eigenvalues --    4.32728   4.33662   4.34678   4.39451   4.41022
 Alpha virt. eigenvalues --    4.42349   4.42385   4.43270   4.43494   4.46257
 Alpha virt. eigenvalues --    4.47674   4.50123   4.56398   4.58617   4.61815
 Alpha virt. eigenvalues --    4.67383   4.78371   4.78621   4.79525   4.80943
 Alpha virt. eigenvalues --    4.96053   5.03693
  Beta  occ. eigenvalues --  -89.01079 -89.01079 -19.24551 -19.24551 -14.49634
  Beta  occ. eigenvalues --  -14.49634 -10.41361 -10.41360 -10.38122 -10.38122
  Beta  occ. eigenvalues --  -10.33351 -10.33351 -10.33076 -10.33076 -10.33035
  Beta  occ. eigenvalues --  -10.33035 -10.32529 -10.32529 -10.31613 -10.31565
  Beta  occ. eigenvalues --  -10.31565 -10.31558 -10.30770 -10.30770 -10.30370
  Beta  occ. eigenvalues --  -10.30370 -10.30289 -10.30289 -10.30196 -10.30196
  Beta  occ. eigenvalues --  -10.29899 -10.29899 -10.29479 -10.29479 -10.28094
  Beta  occ. eigenvalues --  -10.28094 -10.28093 -10.28093 -10.27625 -10.27625
  Beta  occ. eigenvalues --  -10.27509 -10.27509 -10.27477 -10.27477  -8.07002
  Beta  occ. eigenvalues --   -8.07002  -6.03434  -6.03434  -6.03059  -6.03059
  Beta  occ. eigenvalues --   -6.02701  -6.02701  -1.16152  -1.15655  -1.08984
  Beta  occ. eigenvalues --   -1.07647  -0.99387  -0.99383  -0.97168  -0.97163
  Beta  occ. eigenvalues --   -0.94172  -0.94165  -0.92414  -0.90618  -0.90224
  Beta  occ. eigenvalues --   -0.86804  -0.86492  -0.86192  -0.85988  -0.84460
  Beta  occ. eigenvalues --   -0.84131  -0.83245  -0.82906  -0.82581  -0.81723
  Beta  occ. eigenvalues --   -0.79274  -0.78903  -0.77811  -0.73938  -0.72850
  Beta  occ. eigenvalues --   -0.72675  -0.72297  -0.70281  -0.69712  -0.69168
  Beta  occ. eigenvalues --   -0.69091  -0.67768  -0.66021  -0.65426  -0.65055
  Beta  occ. eigenvalues --   -0.64782  -0.63982  -0.63935  -0.63790  -0.62059
  Beta  occ. eigenvalues --   -0.61699  -0.59893  -0.58542  -0.58318  -0.57527
  Beta  occ. eigenvalues --   -0.57422  -0.57362  -0.56326  -0.55989  -0.55726
  Beta  occ. eigenvalues --   -0.55240  -0.54651  -0.53783  -0.53743  -0.53649
  Beta  occ. eigenvalues --   -0.53631  -0.53629  -0.53526  -0.52926  -0.52016
  Beta  occ. eigenvalues --   -0.51986  -0.50599  -0.50590  -0.50345  -0.50235
  Beta  occ. eigenvalues --   -0.50189  -0.49509  -0.49385  -0.48706  -0.48507
  Beta  occ. eigenvalues --   -0.48374  -0.47932  -0.47901  -0.47581  -0.45964
  Beta  occ. eigenvalues --   -0.45900  -0.45693  -0.45327  -0.44076  -0.43998
  Beta  occ. eigenvalues --   -0.43986  -0.43957  -0.43363  -0.43355  -0.42173
  Beta  occ. eigenvalues --   -0.42170  -0.39211  -0.39039  -0.38660  -0.37916
  Beta  occ. eigenvalues --   -0.37088  -0.36977  -0.36807  -0.35477  -0.35459
  Beta  occ. eigenvalues --   -0.35041  -0.34852  -0.33671  -0.33671  -0.30575
  Beta  occ. eigenvalues --   -0.29385
  Beta virt. eigenvalues --   -0.25604  -0.20506  -0.16537  -0.14482  -0.12608
  Beta virt. eigenvalues --   -0.11650  -0.11380  -0.10096  -0.09478  -0.09386
  Beta virt. eigenvalues --   -0.08961  -0.08837  -0.08282  -0.07174  -0.07098
  Beta virt. eigenvalues --   -0.06864  -0.06750  -0.06384  -0.06188  -0.05482
  Beta virt. eigenvalues --   -0.05406  -0.05207  -0.04976  -0.04967  -0.04376
  Beta virt. eigenvalues --   -0.04215  -0.04072  -0.03756  -0.03463  -0.03340
  Beta virt. eigenvalues --   -0.03303  -0.02875  -0.02757  -0.02645  -0.02174
  Beta virt. eigenvalues --   -0.01925  -0.01868  -0.01756  -0.01348  -0.01150
  Beta virt. eigenvalues --   -0.01126  -0.00574  -0.00513  -0.00334  -0.00278
  Beta virt. eigenvalues --    0.00033   0.00121   0.00379   0.00404   0.00856
  Beta virt. eigenvalues --    0.00977   0.01170   0.01224   0.01813   0.01825
  Beta virt. eigenvalues --    0.01867   0.02257   0.02311   0.02567   0.02775
  Beta virt. eigenvalues --    0.03258   0.03261   0.03406   0.03686   0.03924
  Beta virt. eigenvalues --    0.04087   0.04199   0.04441   0.04579   0.04787
  Beta virt. eigenvalues --    0.04945   0.04966   0.05146   0.05430   0.05543
  Beta virt. eigenvalues --    0.05967   0.06082   0.06158   0.06192   0.06512
  Beta virt. eigenvalues --    0.06743   0.07157   0.07246   0.07362   0.07365
  Beta virt. eigenvalues --    0.07754   0.07890   0.07981   0.08072   0.08122
  Beta virt. eigenvalues --    0.08399   0.08527   0.08701   0.08904   0.09000
  Beta virt. eigenvalues --    0.09022   0.09088   0.09448   0.09629   0.09847
  Beta virt. eigenvalues --    0.09866   0.10084   0.10137   0.10473   0.10635
  Beta virt. eigenvalues --    0.10738   0.10759   0.10927   0.11000   0.11051
  Beta virt. eigenvalues --    0.11305   0.11449   0.11589   0.11698   0.11942
  Beta virt. eigenvalues --    0.12037   0.12279   0.12397   0.12574   0.12838
  Beta virt. eigenvalues --    0.13101   0.13194   0.13345   0.13587   0.13863
  Beta virt. eigenvalues --    0.13985   0.14128   0.14211   0.14261   0.14468
  Beta virt. eigenvalues --    0.14586   0.14638   0.14903   0.14912   0.15167
  Beta virt. eigenvalues --    0.15302   0.15510   0.15765   0.15891   0.16005
  Beta virt. eigenvalues --    0.16110   0.16369   0.16545   0.16625   0.16682
  Beta virt. eigenvalues --    0.16907   0.17007   0.17042   0.17200   0.17389
  Beta virt. eigenvalues --    0.17480   0.17485   0.17792   0.17885   0.18130
  Beta virt. eigenvalues --    0.18324   0.18443   0.18651   0.18662   0.18950
  Beta virt. eigenvalues --    0.18951   0.19109   0.19190   0.19573   0.19766
  Beta virt. eigenvalues --    0.19956   0.19979   0.20104   0.20354   0.20442
  Beta virt. eigenvalues --    0.20575   0.20825   0.21065   0.21257   0.21371
  Beta virt. eigenvalues --    0.21455   0.21709   0.21731   0.22046   0.22377
  Beta virt. eigenvalues --    0.22686   0.22795   0.22971   0.23122   0.23317
  Beta virt. eigenvalues --    0.23648   0.23822   0.24216   0.24266   0.24563
  Beta virt. eigenvalues --    0.24859   0.25026   0.25139   0.25423   0.25522
  Beta virt. eigenvalues --    0.25743   0.25781   0.26342   0.26473   0.26643
  Beta virt. eigenvalues --    0.26699   0.26882   0.27015   0.27222   0.27301
  Beta virt. eigenvalues --    0.27754   0.27936   0.27974   0.28092   0.28744
  Beta virt. eigenvalues --    0.28771   0.29207   0.29622   0.30107   0.30562
  Beta virt. eigenvalues --    0.30853   0.30891   0.31057   0.32290   0.32341
  Beta virt. eigenvalues --    0.32737   0.32878   0.33336   0.33860   0.33863
  Beta virt. eigenvalues --    0.34314   0.34340   0.34411   0.35115   0.36127
  Beta virt. eigenvalues --    0.36676   0.36941   0.37139   0.38462   0.39034
[...]
 00000252,-0.00000194,-0.00000022,0.00006976,-0.00001960,0.00000080,-0.
 00000218,0.00000050,-0.00000005,-0.00000221,0.00000111,0.00000004,-0.0
 0022885,0.00011657,-0.00000124,0.00017258,-0.00012296,0.00002422,0.000
 03289,0.00002656,0.00000616,-0.00024936,-0.00012233,0.00004260,-0.0000
 1175,0.00000023,-0.00000501,0.00040028,-0.00009908,-0.00021645,0.00000
 517,-0.00000102,-0.00000793,-0.00006853,0.00005748,-0.00000008,0.00006
 776,-0.00005494,-0.00000059,0.00000693,0.00002450,-0.00000156,-0.00006
 468,-0.00006134,0.00000047,0.00000280,-0.00000105,-0.00000100,0.000039
 26,0.00006511,0.00000530,-0.00000215,-0.00000045,0.00000015,-0.0000371
 0,-0.00001203,-0.00000348,0.00000700,0.00002278,-0.00000156,0.00001580
 ,-0.00001798,0.00000215,-0.00001729,0.00000953,-0.00000567,0.00000171,
 0.00000166,-0.00000087,-0.00000678,-0.00001366,0.00000613,0.00000263,-
 0.00000031,-0.00000037,-0.00000098,-0.00000307,0.00000142,-0.00000104,
 -0.00000189,-0.00000020,-0.00000219,0.00000113,-0.00000035,-0.00000136
 ,-0.00000039,-0.00000046,-0.00158072,0.00227551,-0.00147838,0.00007271
 ,-0.00362821,-0.00230652,0.00057668,0.00039604,0.00031856,-0.06678975,
 -0.30168959,-0.07792621,0.00006439,0.00033639,0.00146410,0.00339904,-0
 .00012468,-0.00270663,-0.00000874,-0.00014329,0.00029994,-0.00728523,-
 0.01387493,-0.00484620,0.07152132,0.31700538,-0.00000346,0.00000467,-0
 .00000087,0.00000535,-0.00000706,0.00000130,-0.00000528,-0.00000741,0.
 00000044,0.00000670,-0.00000092,0.00000007,-0.00000849,0.00000064,0.00
 000022,0.00001005,0.00000385,0.00000076,0.00000143,0.00000042,0.000001
 33,-0.00000094,-0.00000052,-0.00000200,-0.00000440,0.00000596,-0.00000
 170,0.00000069,-0.00000009,-0.00000186,0.00000044,-0.00000097,0.000002
 95,0.00000015,-0.00000048,0.00000095,-0.00000424,0.00000177,-0.0000013
 9,-0.00000123,-0.00000191,0.00000073,-0.00000007,-0.00000053,-0.000000
 91,-0.00000229,0.00000372,0.00000083,0.00000035,0.00000020,0.00000054,
 -0.00000214,0.00000175,-0.00000635,-0.00000123,0.00000045,0.00000266,-
 0.00000983,-0.00000582,0.00000272,0.00000086,0.00000093,0.00000104,0.0
 0000044,-0.00000410,0.00000561,0.00000276,-0.00000041,-0.00000028,-0.0
 0000122,0.00000128,-0.00000032,-0.00000170,-0.00000065,-0.00000010,0.0
 0000152,0.00000126,-0.00000032,-0.00000040,-0.00000016,0.00000042,0.00
 000147,-0.00000129,-0.00000015,-0.00000011,0.00000004,0.00000026,-0.00
 000296,0.00000035,0.00000039,0.,-0.00000012,0.00000024,0.00000015,-0.0
 0000007,0.00000016,0.00003304,-0.00005659,-0.00001219,-0.00011590,0.00
 004750,-0.00003596,-0.00009108,0.00002784,0.00001206,0.00007598,0.0000
 5895,-0.00024438,0.00000322,0.00000150,0.00003464,-0.00000221,-0.00005
 188,0.00046546,0.00000221,0.00002103,-0.00000030,0.00000264,-0.0000011
 9,-0.00000015,-0.00000212,0.00000135,-0.00000008,-0.00000079,-0.000000
 67,0.00000047,0.00000199,0.00000205,-0.00000020,-0.00000006,0.00000005
 ,0.00000032,-0.00000073,-0.00000227,-0.00000063,0.00000001,0.00000002,
 0.00000022,0.00000117,-0.00000005,0.00000009,-0.00000035,-0.00000048,0
 .00000011,-0.00000026,0.00000038,-0.00000014,0.00000055,-0.00000037,0.
 00000011,-0.00000019,0.00000003,0.00000010,0.00000025,0.00000029,-0.00
 000027,-0.00000004,0.00000017,0.00000008,0.00000009,-0.00000002,-0.000
 00006,0.00000010,0.00000023,0.00000009,-0.00000009,0.00000009,0.000000
 08,0.00000007,0.,0.00000014,0.00136898,-0.00164593,0.00677240,0.000762
 04,0.00098033,0.00352549,0.00016470,0.00033351,-0.00063747,-0.01663871
 ,-0.07820102,-0.06123876,-0.00070300,0.00150928,-0.00366490,0.00205587
 ,-0.00266237,0.00581106,-0.00014492,0.00030427,-0.00093040,-0.00331293
 ,-0.00783723,0.00144841,0.01720248,0.08617183,0.05199681,0.00001512,-0
 .00002999,0.00000001,-0.00002889,0.00005825,0.00000102,0.00007401,0.00
 006351,0.00000021,-0.00005770,0.00001656,-0.00000227,0.00006374,-0.000
 01471,-0.00000227,0.00003715,-0.00007670,0.00000078,0.00001321,-0.0000
 4624,0.00000124,-0.00003593,0.00003887,-0.00000049,0.00002495,-0.00004
 823,-0.00000073,-0.00002285,0.00004237,-0.00000029,-0.00000623,-0.0000
 0640,0.00000069,-0.00000028,0.00000563,0.00000040,-0.00008237,0.000007
 86,0.00000148,0.00005355,-0.00004354,0.00000461,0.00005512,0.00000635,
 -0.00000019,-0.00009694,-0.00001360,0.00000527,-0.00000423,0.00000423,
 -0.00000076,-0.00004664,0.00005236,-0.00000121,-0.00000308,-0.00000086
 ,0.00000023,0.00017702,-0.00009071,-0.00002189,0.00000131,-0.00000177,
 0.00000063,0.00000555,-0.00000924,0.00000117,-0.00005565,-0.00000375,-
 0.00000071,0.00002862,-0.00002830,0.00000106,0.00004257,0.00002341,0.0
 0000107,-0.00003777,-0.00002515,0.00000028,0.00000480,-0.00000072,0.00
 000004,-0.00002906,0.00003744,0.00000049,0.00000283,-0.00000237,-0.000
 00007,0.00006777,-0.00002357,-0.00000087,-0.00000217,0.00000022,-0.000
 00024,-0.00000266,0.00000087,0.00000004,-0.00029896,0.00022413,-0.0000
 3067,0.00015204,-0.00015194,0.00001889,-0.00025384,-0.00009780,0.00003
 183,-0.00020539,-0.00012836,-0.00006117,-0.00001596,-0.00000370,0.0000
 0687,-0.00020757,0.00132954,0.00036850,-0.00001220,-0.00000815,0.00001
 942,-0.00006917,0.00006169,0.00000246,0.00007068,-0.00005636,-0.000003
 18,0.00000618,0.00002499,-0.00000071,-0.00006681,-0.00006448,0.0000000
 5,0.00000276,-0.00000083,-0.00000041,0.00003982,0.00006736,0.00000344,
 -0.00000203,-0.00000039,0.00000038,-0.00003733,-0.00001300,-0.00000118
 ,0.00000668,0.00002560,-0.00000197,0.00001622,-0.00001889,0.00000145,-
 0.00001844,0.00000901,-0.00000612,0.00000195,0.00000110,-0.00000057,-0
 .00000705,-0.00001384,0.00000598,0.00000279,-0.00000048,-0.00000012,-0
 .00000115,-0.00000286,0.00000068,-0.00000116,-0.00000220,0.00000005,-0
 .00000195,0.00000101,-0.00000008,-0.00000112,-0.00000060,-0.00000029,-
 0.00410800,-0.00323316,0.00041327,-0.00021507,-0.00080906,-0.00033261,
 -0.01645608,0.02077720,0.00933220,0.00059336,-0.00242277,0.00003103,0.
 00001875,0.00013735,-0.00009189,-0.19814103,0.12772558,0.06113589,0.00
 095152,0.00007152,-0.00058254,0.00997272,-0.00706300,-0.00305936,0.000
 37115,-0.00044202,-0.00016380,0.20711160,-0.00000525,0.00001408,-0.000
 00022,0.00001163,-0.00002260,-0.00000078,-0.00004177,-0.00003099,0.000
 00097,0.00003163,-0.00001246,-0.00000150,-0.00004225,0.00000229,-0.000
 00119,0.00000205,0.00004113,0.00000300,-0.00000520,0.00002689,-0.00000
 146,0.00001530,-0.00001897,0.00000058,-0.00001053,0.00001849,0.0000003
 1,0.00001230,-0.00002352,0.00000023,0.00000352,0.00000276,-0.00000080,
 -0.00000005,-0.00000233,-0.00000028,0.00002269,-0.00000090,0.00000368,
 -0.00002257,0.00000860,0.00000459,-0.00001797,-0.00000220,-0.00000156,
 0.00002074,0.00001475,-0.00000112,0.00000053,-0.00000041,-0.00000018,0
 .00001134,-0.00001445,0.00000287,0.00000051,0.00000093,-0.00000070,-0.
 00008181,-0.00001450,-0.00001527,0.00000012,0.00000089,-0.00000075,0.0
 0000064,-0.00000333,-0.00000043,0.00003039,0.00000182,0.00000112,-0.00
 001571,0.00001471,-0.00000026,-0.00002310,-0.00001224,-0.00000114,0.00
 002071,0.00001300,-0.00000048,-0.00000258,0.00000043,0.00000002,0.0000
 1510,-0.00001985,-0.00000024,-0.00000142,0.00000109,0.00000007,-0.0000
 3544,0.00001363,0.00000073,0.00000111,-0.00000016,0.00000021,0.0000012
 9,-0.00000034,0.00000004,0.00004097,0.00001631,0.00000194,-0.00008860,
 0.00002888,0.00000210,-0.00014324,-0.00011044,0.00003047,0.00010236,0.
 00008867,-0.00000581,-0.00000352,0.00000049,-0.00000178,-0.00043682,0.
 00033075,0.00003724,-0.00001555,-0.00000938,0.00000556,0.00003628,-0.0
 0003250,-0.00000177,-0.00003649,0.00002885,0.00000203,-0.00000331,-0.0
 0001286,-0.00000004,0.00003439,0.00003340,0.00000017,-0.00000143,0.000
 00044,0.00000008,-0.00002049,-0.00003457,-0.00000115,0.00000104,0.0000
 0014,-0.00000027,0.00001870,0.00000675,0.00000018,-0.00000320,-0.00001
 348,0.00000099,-0.00000806,0.00000977,-0.00000059,0.00000962,-0.000004
 42,0.00000320,-0.00000101,-0.00000045,0.00000028,0.00000346,0.00000698
 ,-0.00000300,-0.00000151,0.00000025,0.,0.00000066,0.00000151,-0.000000
 23,0.00000055,0.00000116,-0.00000007,0.00000100,-0.00000054,0.,0.00000
 055,0.00000039,0.00000009,-0.00259301,0.00112618,-0.00167817,-0.000936
 45,-0.00044899,0.00021702,-0.00847432,0.00968681,0.00311733,-0.0030568
 3,-0.00384234,-0.00311698,0.00014019,-0.00004727,0.00030917,0.12811187
 ,-0.17633206,-0.06092577,0.00042582,0.00033966,0.00145638,0.02219878,-
 0.01372463,-0.00836319,0.00113372,-0.00073963,-0.00038409,-0.13631872,
 0.18305173,-0.00000042,0.00000009,-0.00000094,0.00000114,-0.00000645,0
 .00000071,-0.00000100,-0.00000071,0.00000050,-0.00000080,0.00000445,0.
 00000179,0.00001019,0.00000571,0.00000022,-0.00002082,-0.00000497,-0.0
 0000032,-0.00000156,-0.00000334,0.00000013,0.00000196,0.00000108,-0.00
 000073,-0.00000119,0.00000485,-0.00000157,-0.00000066,0.00000246,-0.00
 000090,-0.00000072,-0.00000003,0.00000166,0.00000018,-0.00000049,0.000
 00097,0.00001667,-0.00000365,-0.00000142,-0.00000646,0.00000782,-0.000
 00138,-0.00001001,-0.00000280,-0.00000018,0.00001468,-0.00000109,0.000
 01067,0.00000023,-0.00000068,-0.00000117,0.00001151,-0.00000770,-0.000
 00579,-0.00000033,-0.00000015,-0.00000029,-0.00001136,0.00001896,0.000
 00339,-0.00000086,-0.00000072,0.00000198,0.00000004,-0.00000066,-0.000
 00004,0.00000260,-0.00000053,-0.00000043,-0.00000163,0.00000170,-0.000
 00026,-0.00000224,-0.00000089,-0.00000029,0.00000214,0.00000209,-0.000
 00040,-0.00000011,0.00000001,0.00000024,0.00000168,-0.00000229,-0.0000
 0005,-0.00000025,0.00000014,0.00000020,-0.00000519,0.00000051,0.000000
 47,0.00000011,0.,0.00000012,0.00000023,-0.00000006,0.00000012,0.000042
 48,-0.00004373,-0.00004149,0.00000537,-0.00000577,0.00000899,-0.000046
 94,0.00013586,-0.00014540,0.00003802,0.00000332,-0.00002717,0.00000389
 ,-0.00000085,0.00000663,0.00015757,-0.00001755,0.00039384,0.00003398,-
 0.00001285,0.00000756,0.00000522,-0.00000398,-0.00000028,-0.00000607,0
 .00000436,0.00000029,-0.00000053,-0.00000227,0.00000074,0.00000573,0.0
 0000572,-0.00000031,-0.00000025,0.00000006,0.00000026,-0.00000380,-0.0
 0000599,-0.00000109,0.00000010,0.00000006,0.00000016,0.00000416,0.0000
 0089,0.00000002,-0.00000110,-0.00000231,0.00000034,-0.00000174,0.00000
 169,-0.00000022,0.00000192,-0.00000105,0.00000054,-0.00000027,-0.00000
 006,0.00000011,0.00000090,0.00000137,-0.00000067,-0.00000022,0.0000001
 8,0.00000009,-0.00000001,0.00000011,-0.00000010,0.00000017,0.00000035,
 0.00000010,0.00000003,0.00000003,0.00000010,0.00000013,0.00000005,0.00
 000017,0.00016390,-0.00180225,0.00685382,-0.00038295,0.00014628,-0.000
 63745,-0.00008866,-0.00062362,0.00316742,-0.00000219,-0.00315042,0.005
 87604,-0.00010183,0.00031129,-0.00092685,0.06106659,-0.06133377,-0.065
 29974,-0.00045583,0.00162862,-0.00369687,0.00638684,-0.00425420,0.0014
 1313,0.00032559,-0.00021092,-0.00001279,-0.06662968,0.06785991,0.05633
 514,0.00000337,-0.00001173,-0.00000016,-0.00000978,0.00002477,0.000000
 45,0.00003891,0.00002651,-0.00000009,-0.00002487,0.00000656,-0.0000003
 4,0.00002525,-0.00000721,-0.00000014,0.00002936,-0.00003522,0.00000024
 ,0.00000886,-0.00002244,0.00000062,-0.00002054,0.00001889,-0.00000044,
 0.00000816,-0.00001998,-0.00000024,-0.00001192,0.00002141,-0.00000022,
 -0.00000218,-0.00000399,0.00000036,-0.00000017,0.00000232,0.00000005,-
 0.00004476,0.00000335,-0.00000161,0.00002517,-0.00002316,-0.00000055,0
 .00003178,0.00000505,0.00000030,-0.00004167,-0.00001162,0.00000068,-0.
 00000069,0.00000224,-0.00000027,-0.00002443,0.00003591,-0.00000397,-0.
 00000140,0.00000007,0.00000082,0.00008309,-0.00003639,0.00000383,0.000
 00217,0.00000051,0.00000054,0.00000273,-0.00000554,0.00000137,-0.00003
 089,-0.00000118,0.00000015,0.00001563,-0.00001642,0.00000045,0.0000236
 4,0.00001261,-0.00000002,-0.00002044,-0.00001416,0.00000020,0.00000261
 ,-0.00000038,0.00000012,-0.00001657,0.00002091,0.00000012,0.00000143,-
 0.00000105,0.00000002,0.00003912,-0.00001293,-0.00000034,-0.00000128,0
 .00000032,-0.00000004,-0.00000138,0.00000043,0.00000013,-0.00002843,0.
 00009742,-0.00003585,0.00005689,-0.00009334,0.00001465,-0.00001342,0.0
 0004578,0.00005415,-0.00009105,-0.00010046,-0.00000016,0.00000073,-0.0
 0000680,0.00000366,0.00008962,0.00010179,-0.00012288,0.00000461,0.0000
 1693,-0.00000329,-0.00003934,0.00003480,0.00000092,0.00004000,-0.00003
 219,-0.00000144,0.00000320,0.00001447,-0.00000055,-0.00003792,-0.00003
 641,0.00000007,0.00000167,-0.00000049,-0.00000032,0.00002340,0.0000382
 6,0.00000231,-0.00000118,-0.00000030,0.00000018,-0.00002153,-0.0000073
 8,-0.00000129,0.00000410,0.00001467,-0.00000088,0.00000922,-0.00001110
 ,0.00000104,-0.00001048,0.00000533,-0.00000323,0.00000103,0.00000074,-
 0.00000052,-0.00000398,-0.00000803,0.00000354,0.00000160,-0.00000044,-
 0.00000012,-0.00000062,-0.00000147,0.00000050,-0.00000065,-0.00000136,
 -0.00000005,-0.00000114,0.00000054,-0.00000013,-0.00000074,-0.00000036
 ,-0.00000026,0.00049170,0.00047763,-0.00000234,-0.00099036,0.00338308,
 0.00201312,0.00161797,-0.00132186,0.00020608,-0.01574400,-0.00850763,-
 0.00035964,-0.00084632,-0.00044138,-0.00006467,-0.00287869,0.00021637,
 0.00088723,-0.00022879,0.00010092,0.00005802,-0.32024543,-0.07730398,0
 .00846905,0.00081930,0.00023440,-0.00048059,0.00064717,-0.00001336,-0.
 00051827,0.33728356,0.00000383,-0.00000695,0.00000030,-0.00000722,0.00
 001401,-0.00000053,0.00001666,0.00001435,-0.00000022,-0.00001246,0.000
 00248,0.00000121,0.00001241,-0.00000427,-0.00000036,0.00001089,-0.0000
 1583,-0.00000131,0.00000204,-0.00000799,-0.00000049,-0.00000716,0.0000
 0834,0.00000091,0.00000639,-0.00001132,0.00000048,-0.00000437,0.000007
 53,0.00000033,-0.00000168,-0.00000094,-0.00000042,-0.00000003,0.000001
 35,-0.00000017,-0.00002202,0.00000250,0.00000087,0.00001619,-0.0000071
 2,0.00000117,0.00001679,0.00000483,-0.00000149,-0.00001906,-0.00001083
 ,0.00000077,-0.00000046,0.00000020,-0.00000005,-0.00001927,0.00000966,
 0.00000743,-0.00000038,-0.00000043,-0.00000156,0.00005979,0.00000480,-
 0.00001815,0.00000020,0.00000022,-0.00000085,-0.00000046,0.00000231,-0
 .00000098,-0.00001277,-0.00000044,-0.00000001,0.00000657,-0.00000682,-
 0.00000007,0.00000956,0.00000505,0.,-0.00000847,-0.00000593,-0.0000000
 3,0.00000109,-0.00000006,-0.00000016,-0.00000714,0.00000866,0.00000025
 ,0.00000066,-0.00000050,-0.00000017,0.00001650,-0.00000492,0.00000022,
 -0.00000046,0.00000013,-0.00000015,-0.00000058,0.00000027,-0.00000010,
 -0.00013549,0.00005535,0.00002131,0.00013866,0.00001700,0.00002569,0.0
 0001291,-0.00001957,-0.00004086,-0.00012849,-0.00010006,0.00001515,-0.
 00000260,0.00000481,0.00000257,0.00004507,0.00002379,0.00027537,0.0000
 1728,0.00004609,-0.00005168,-0.00001641,0.00001415,0.00000017,0.000016
 68,-0.00001322,-0.00000032,0.00000161,0.00000584,-0.00000016,-0.000015
 82,-0.00001530,0.00000009,0.00000068,-0.00000021,-0.00000023,0.0000095
 5,0.00001616,0.00000100,-0.00000047,-0.00000006,0.00000006,-0.00000896
 ,-0.00000311,-0.00000055,0.00000158,0.00000579,-0.00000048,0.00000406,
 -0.00000451,0.00000038,-0.00000430,0.00000229,-0.00000145,0.00000039,0
 .00000047,-0.00000021,-0.00000171,-0.00000340,0.00000143,0.00000066,-0
 .00000003,-0.00000005,-0.00000022,-0.00000085,0.00000028,-0.00000026,-
 0.00000042,0.,-0.00000058,0.00000036,-0.00000005,-0.00000037,-0.000000
 10,-0.00000005,0.00048505,-0.00099763,-0.00011456,0.00287550,-0.001843
 65,-0.00314582,-0.00080576,-0.00456459,-0.00360077,0.02080853,0.010198
 88,-0.00049910,0.00108882,0.00031632,0.00000520,-0.02906972,-0.0029978
 6,0.00115257,-0.00141637,-0.00031775,0.00010673,-0.07732033,-0.0806375
 0,-0.00437325,-0.00028601,0.00043211,0.00138868,0.00050447,0.00059822,
 0.00135882,0.08314675,0.07977988,-0.00000359,0.00000448,-0.00000044,0.
 00000594,-0.00001252,0.00000072,-0.00001038,-0.00000981,0.00000011,0.0
 0000847,-0.00000044,0.00000017,-0.00000468,0.00000538,0.00000171,-0.00
 001452,0.00000990,-0.00000092,-0.00000148,0.00000547,0.00000095,0.0000
 0491,-0.00000602,-0.00000212,-0.00000585,0.00000984,-0.00000128,0.0000
 0259,-0.00000489,-0.00000091,0.00000109,0.00000081,0.00000157,0.000000
 13,-0.00000093,0.00000085,0.00002120,-0.00000369,-0.00000561,-0.000013
 67,0.00000669,0.00000293,-0.00001576,-0.00000393,0.00000287,0.00001658
 ,0.00000697,0.00000228,0.00000071,-0.00000009,-0.00000101,0.00001541,-
 0.00001194,-0.00001165,-0.00000013,0.00000031,0.00000467,-0.00005249,0
 .00000828,0.00002246,0.00000006,0.00000031,0.00000195,0.00000177,-0.00
 000411,-0.00000122,0.00000866,-0.00000050,-0.00000083,-0.00000410,0.00
 000495,0.00000018,-0.00000609,-0.00000288,0.00000054,0.00000518,0.0000
 0436,0.00000009,-0.00000059,0.00000009,0.00000017,0.00000527,-0.000005
 85,-0.00000023,-0.00000044,0.00000029,0.00000015,-0.00001208,0.0000020
 3,-0.00000005,0.00000035,-0.00000011,0.00000005,0.00000038,-0.00000025
 ,0.00000004,0.00005314,-0.00008692,-0.00000995,-0.00016971,0.00009237,
 -0.00007526,-0.00022894,0.00004624,0.00008641,0.00023566,0.00005287,0.
 00007762,0.00000367,0.00000053,-0.00002616,-0.00003839,0.00029205,-0.0
 0086036,0.00001304,0.00004160,0.00007610,0.00001157,-0.00000847,0.0000
 0021,-0.00001146,0.00000903,-0.00000021,-0.00000168,-0.00000425,0.0000
 0093,0.00001103,0.00001048,-0.00000032,-0.00000048,0.00000022,0.000000
 43,-0.00000673,-0.00001142,-0.00000182,0.00000034,0.00000012,0.0000001
 8,0.00000713,0.00000165,0.00000084,-0.00000168,-0.00000366,0.00000038,
 -0.00000277,0.00000300,-0.00000054,0.00000318,-0.00000189,0.00000097,-
 0.00000044,-0.00000022,0.00000019,0.00000134,0.00000239,-0.00000122,-0
 .00000040,0.00000017,0.00000015,0.00000010,0.00000042,-0.00000034,0.00
 000024,0.00000047,0.00000014,0.00000023,-0.00000006,0.00000014,0.00000
 025,0.00000004,0.00000023,0.00006173,-0.00033520,-0.00091746,0.0017964
 6,-0.00308650,0.00583091,0.00032392,-0.00337482,0.00587737,0.00890883,
 0.00274041,0.00404729,0.00047726,0.00015275,-0.00009822,-0.00827846,-0
 .00238204,0.00444478,-0.00045146,-0.00010883,-0.00008813,0.00848148,-0
 .00435816,-0.04088702,-0.00063604,0.00137733,-0.00329681,-0.00039478,0
 .00144871,-0.00328206,-0.01012003,0.00748739,0.02908248\\0.00000002,-0
 .00000004,0.00000008,0.00000002,0.,0.00000002,0.,0.00000003,-0.0000000
 1,0.,-0.00000001,-0.00000006,0.00000002,0.00000002,-0.00000005,0.,-0.0
 0000005,-0.00000002,0.,-0.00000002,0.00000005,-0.00000004,0.00000006,0
 .00000007,0.,0.00000002,0.,0.,0.,-0.00000002,0.00000001,-0.00000001,-0
 .00000005,-0.00000001,0.,-0.00000005,0.00000001,-0.00000002,0.00000001
 ,0.,-0.00000003,-0.00000002,0.00000002,0.,0.,0.,-0.00000003,0.,-0.0000
 0002,0.,0.,0.,0.00000001,0.,0.,-0.00000002,0.,-0.00000002,0.00000004,-
 0.00000001,-0.00000002,0.00000001,-0.00000001,0.00000002,-0.00000002,0
 .,-0.00000001,0.,0.00000002,0.,0.00000004,-0.00000002,-0.00000002,0.,0
 .,0.,0.00000002,0.,0.,0.,0.00000001,0.,-0.00000001,0.,0.00000001,0.000
 00001,0.,0.00000002,-0.00000004,-0.00000001,0.00000002,-0.00000001,-0.
 00000001,-0.00000002,0.00000002,0.,0.00000002,0.,0.,-0.00000002,-0.000
 00001,0.00000003,0.,0.,0.,0.00000003,0.00000001,-0.00000006,0.00000001
 ,0.,0.00000001,0.,-0.00000004,0.00000002,0.,0.,0.00000001,-0.00000002,
 0.,0.,0.00000002,0.00000001,0.00000002,0.,0.,0.,-0.00000003,0.,-0.0000
 0006,-0.00000001,0.,0.00000001,0.,0.00000004,0.00000002,0.,0.,0.000000
 01,0.00000002,-0.00000001,0.00000001,0.,0.,0.,0.00000001,0.,0.,0.,0.00
 000003,0.,0.,0.,0.,-0.00000002,0.00000002,0.,0.,0.,0.,0.00000001,-0.00
 000002,0.,0.,0.,0.,0.,0.,0.,0.,0.,0.,-0.00000001,0.00000001,0.,0.,0.,0
 .,-0.00000001,0.,0.,0.,-0.00000003,0.,0.,0.,0.,0.00000002,-0.00000003,
 0.,0.,0.,0.,0.,0.00000002,0.,0.,0.,0.,0.,0.,0.,0.,0.,0.\\\@
 The archive entry for this job was punched.


 A SUCCESSFUL PURSUIT OF SCIENCE MAKES A MAN THE
 BENEFACTOR OF ALL MANKIND OF EVERY AGE.
   --  JOSEPH PRIESTLEY, "EXPERIMENTS AND
 OBSERVATIONS ON DIFFERENT KINDS OF AIR", 1774
 Job cpu time:       4 days 18 hours  2 minutes 31.6 seconds.
 Elapsed time:       0 days  5 hours 21 minutes 49.1 seconds.
 File lengths (MBytes):  RWF=  10740 Int=      0 D2E=      0 Chk=    103 Scr=      1
 Normal termination of Gaussian 16 at Tue Nov 21 15:25:47 2023.
