 Entering Link 1 = C:\G09W\l1.exe PID=     18252.
  
 Copyright (c) 1988,1990,1992,1993,1995,1998,2003,2009,2010,
            Gaussian, Inc.  All Rights Reserved.
  
 This is part of the Gaussian(R) 09 program.  It is based on
 the Gaussian(R) 03 system (copyright 2003, Gaussian, Inc.),
 the Gaussian(R) 98 system (copyright 1998, Gaussian, Inc.),
 the Gaussian(R) 94 system (copyright 1995, Gaussian, Inc.),
 the Gaussian 92(TM) system (copyright 1992, Gaussian, Inc.),
 the Gaussian 90(TM) system (copyright 1990, Gaussian, Inc.),
 the Gaussian 88(TM) system (copyright 1988, Gaussian, Inc.),
 the Gaussian 86(TM) system (copyright 1986, Carnegie Mellon
 University), and the Gaussian 82(TM) system (copyright 1983,
 Carnegie Mellon University). Gaussian is a federally registered
 trademark of Gaussian, Inc.
  
 This software contains proprietary and confidential information,
 including trade secrets, belonging to Gaussian, Inc.
  
 This software is provided under written license and may be
 used, copied, transmitted, or stored only in accord with that
 written license.
  
 The following legend is applicable only to US Government
 contracts under FAR:
  
                    RESTRICTED RIGHTS LEGEND
  
 Use, reproduction and disclosure by the US Government is
 subject to restrictions as set forth in subparagraphs (a)
 and (c) of the Commercial Computer Software - Restricted
 Rights clause in FAR 52.227-19.
  
 Gaussian, Inc.
 340 Quinnipiac St., Bldg. 40, Wallingford CT 06492
  
  
 ---------------------------------------------------------------
 Warning -- This program may not be used in any manner that
 competes with the business of Gaussian, Inc. or will provide
 assistance to any competitor of Gaussian, Inc.  The licensee
 of this program is prohibited from giving any competitor of
 Gaussian, Inc. access to this program.  By using this program,
 the user acknowledges that Gaussian, Inc. is engaged in the
 business of creating and licensing software in the field of
 computational chemistry and represents and warrants to the
 licensee that it is not a competitor of Gaussian, Inc. and that
 it will not use this program in any manner prohibited above.
 ---------------------------------------------------------------
  

 Cite this work as:
 Gaussian 09, Revision B.01,
 M. J. Frisch, G. W. Trucks, H. B. Schlegel, G. E. Scuseria, 
 M. A. Robb, J. R. Cheeseman, G. Scalmani, V. Barone, B. Mennucci, 
 G. A. Petersson, H. Nakatsuji, M. Caricato, X. Li, H. P. Hratchian, 
 A. F. Izmaylov, J. Bloino, G. Zheng, J. L. Sonnenberg, M. Hada, 
 M. Ehara, K. Toyota, R. Fukuda, J. Hasegawa, M. Ishida, T. Nakajima, 
 Y. Honda, O. Kitao, H. Nakai, T. Vreven, J. A. Montgomery, Jr., 
 J. E. Peralta, F. Ogliaro, M. Bearpark, J. J. Heyd, E. Brothers, 
 K. N. Kudin, V. N. Staroverov, T. Keith, R. Kobayashi, J. Normand, 
 K. Raghavachari, A. Rendell, J. C. Burant, S. S. Iyengar, J. Tomasi, 
 M. Cossi, N. Rega, J. M. Millam, M. Klene, J. E. Knox, J. B. Cross, 
 V. Bakken, C. Adamo, J. Jaramillo, R. Gomperts, R. E. Stratmann, 
 O. Yazyev, A. J. Austin, R. Cammi, C. Pomelli, J. W. Ochterski, 
 R. L. Martin, K. Morokuma, V. G. Zakrzewski, G. A. Voth, 
 P. Salvador, J. J. Dannenberg, S. Dapprich, A. D. Daniels, 
 O. Farkas, J. B. Foresman, J. V. Ortiz, J. Cioslowski, 
 and D. J. Fox, Gaussian, Inc., Wallingford CT, 2010.
 
 ******************************************
 Gaussian 09:  IA32W-G09RevB.01 12-Aug-2010
                12-Jul-2023 
 ******************************************
 %nprocshared=6
 Will use up to    6 processors via shared memory.
 %chk=G:\Meu Drive\POS-DOC-IME\SUBSTITUINTES-DOADORES\DPP-substituido\DPP-SUB-1-O
 PT-FREQ.chk
 ----------------------------------------------------
 # opt freq b3lyp/6-31+g(d,p) geom=connectivity polar
 ----------------------------------------------------
 1/14=-1,18=20,19=15,26=3,38=1,57=2/1,3;
 2/9=110,12=2,17=6,18=5,40=1/2;
 3/5=1,6=6,7=111,11=2,16=1,25=1,30=1,71=1,74=-5/1,2,3;
 4//1;
 5/5=2,38=5,98=1/2;
 6/7=2,8=2,9=2,10=2,28=1/1;
 7//1,2,3,16;
 1/14=-1,18=20,19=15/3(2);
 2/9=110/2;
 99//99;
 2/9=110/2;
 3/5=1,6=6,7=111,11=2,16=1,25=1,30=1,71=1,74=-5/1,2,3;
 4/5=5,16=3/1;
 5/5=2,38=5,98=1/2;
 7//1,2,3,16;
 1/14=-1,18=20,19=15/3(-5);
 2/9=110/2;
 6/7=2,8=2,9=2,10=2,19=2,28=1/1;
 99/9=1/99;
 -------------------
 Title Card Required
 -------------------
 Symbolic Z-matrix:
 Charge =  0 Multiplicity = 1
 N                     1.76306  -1.18283   0.0001 
 C                     1.8097    0.24999  -0.00004 
 C                     0.47019  -1.66717   0.00005 
 C                    -0.39109  -0.60674  -0.00004 
 C                     0.39109   0.60674   0. 
 C                    -0.47019   1.66717   0.00004 
 C                    -1.8097   -0.24999  -0.00015 
 N                    -1.76306   1.18283  -0.00001 
 O                     2.84314   0.89886  -0.00003 
 O                    -2.84314  -0.89886   0.00002 
 H                    -2.60337   1.74285   0.00039 
 H                     2.60337  -1.74285  -0.00014 
 C                    -0.18893   3.18127   0.00013 
 C                     1.12642   3.64638   0.00018 
 C                    -1.24913   4.08764   0.00006 
 C                     1.38141   5.01759   0.00083 
 H                     1.96204   2.93155   0.00101 
 C                    -0.99423   5.4593   -0.00027 
 H                    -2.28589   3.72123  -0.00015 
 C                     0.32078   5.92438   0.00025 
 H                     2.41816   5.38427   0.0015 
 H                    -1.83035   6.1737   -0.00074 
 H                     0.52208   7.00548   0.00071 
 C                     0.18893  -3.18127   0.00009 
 C                     1.2495   -4.08773   0.00018 
 C                    -1.12605  -3.64644   0.00014 
 C                     0.99505  -5.45903  -0.00035 
 H                     2.28608  -3.72068  -0.00064 
 C                    -1.38074  -5.01813   0.00061 
 H                    -1.96206  -2.93214   0.00025 
 C                    -0.32048  -5.92443   0.00022 
 H                     1.83095  -6.17358  -0.00091 
 H                    -2.41765  -5.3846    0.00107 
 H                    -0.52086  -7.0057   -0.00014 
 

 GradGradGradGradGradGradGradGradGradGradGradGradGradGradGradGradGradGrad
 Berny optimization.
 Initialization pass.
                           ----------------------------
                           !    Initial Parameters    !
                           ! (Angstroms and Degrees)  !
 --------------------------                            --------------------------
 ! Name  Definition              Value          Derivative Info.                !
 --------------------------------------------------------------------------------
 ! R1    R(1,2)                  1.4336         estimate D2E/DX2                !
 ! R2    R(1,3)                  1.3806         estimate D2E/DX2                !
 ! R3    R(1,12)                 1.0098         estimate D2E/DX2                !
 ! R4    R(2,5)                  1.4628         estimate D2E/DX2                !
 ! R5    R(2,9)                  1.2203         estimate D2E/DX2                !
 ! R6    R(3,4)                  1.3661         estimate D2E/DX2                !
 ! R7    R(3,24)                 1.54           estimate D2E/DX2                !
 ! R8    R(4,5)                  1.4437         estimate D2E/DX2                !
 ! R9    R(4,7)                  1.4628         estimate D2E/DX2                !
 ! R10   R(5,6)                  1.3661         estimate D2E/DX2                !
 ! R11   R(6,8)                  1.3806         estimate D2E/DX2                !
 ! R12   R(6,13)                 1.54           estimate D2E/DX2                !
 ! R13   R(7,8)                  1.4336         estimate D2E/DX2                !
 ! R14   R(7,10)                 1.2203         estimate D2E/DX2                !
 ! R15   R(8,11)                 1.0098         estimate D2E/DX2                !
 ! R16   R(13,14)                1.3952         estimate D2E/DX2                !
 ! R17   R(13,15)                1.3948         estimate D2E/DX2                !
 ! R18   R(14,16)                1.3947         estimate D2E/DX2                !
 ! R19   R(14,17)                1.0997         estimate D2E/DX2                !
 ! R20   R(15,18)                1.3951         estimate D2E/DX2                !
 ! R21   R(15,19)                1.0996         estimate D2E/DX2                !
 ! R22   R(16,20)                1.3954         estimate D2E/DX2                !
 ! R23   R(16,21)                1.0997         estimate D2E/DX2                !
 ! R24   R(18,20)                1.3948         estimate D2E/DX2                !
 ! R25   R(18,22)                1.0998         estimate D2E/DX2                !
 ! R26   R(20,23)                1.0997         estimate D2E/DX2                !
 ! R27   R(24,25)                1.3952         estimate D2E/DX2                !
 ! R28   R(24,26)                1.3948         estimate D2E/DX2                !
 ! R29   R(25,27)                1.3947         estimate D2E/DX2                !
 ! R30   R(25,28)                1.0997         estimate D2E/DX2                !
 ! R31   R(26,29)                1.3951         estimate D2E/DX2                !
 ! R32   R(26,30)                1.0996         estimate D2E/DX2                !
 ! R33   R(27,31)                1.3954         estimate D2E/DX2                !
 ! R34   R(27,32)                1.0997         estimate D2E/DX2                !
 ! R35   R(29,31)                1.3948         estimate D2E/DX2                !
 ! R36   R(29,33)                1.0998         estimate D2E/DX2                !
 ! R37   R(31,34)                1.0997         estimate D2E/DX2                !
 ! A1    A(2,1,3)              112.4013         estimate D2E/DX2                !
 ! A2    A(2,1,12)             121.8167         estimate D2E/DX2                !
 ! A3    A(3,1,12)             125.782          estimate D2E/DX2                !
 ! A4    A(1,2,5)              102.2517         estimate D2E/DX2                !
 ! A5    A(1,2,9)              123.9879         estimate D2E/DX2                !
 ! A6    A(5,2,9)              133.7604         estimate D2E/DX2                !
 ! A7    A(1,3,4)              108.5463         estimate D2E/DX2                !
 ! A8    A(1,3,24)             121.0601         estimate D2E/DX2                !
 ! A9    A(4,3,24)             130.3936         estimate D2E/DX2                !
 ! A10   A(3,4,5)              108.1121         estimate D2E/DX2                !
 ! A11   A(3,4,7)              143.1993         estimate D2E/DX2                !
 ! A12   A(5,4,7)              108.6886         estimate D2E/DX2                !
 ! A13   A(2,5,4)              108.6886         estimate D2E/DX2                !
 ! A14   A(2,5,6)              143.1993         estimate D2E/DX2                !
 ! A15   A(4,5,6)              108.1121         estimate D2E/DX2                !
 ! A16   A(5,6,8)              108.5463         estimate D2E/DX2                !
 ! A17   A(5,6,13)             130.3935         estimate D2E/DX2                !
 ! A18   A(8,6,13)             121.0602         estimate D2E/DX2                !
 ! A19   A(4,7,8)              102.2517         estimate D2E/DX2                !
 ! A20   A(4,7,10)             133.7604         estimate D2E/DX2                !
 ! A21   A(8,7,10)             123.9879         estimate D2E/DX2                !
 ! A22   A(6,8,7)              112.4013         estimate D2E/DX2                !
 ! A23   A(6,8,11)             125.782          estimate D2E/DX2                !
 ! A24   A(7,8,11)             121.8167         estimate D2E/DX2                !
 ! A25   A(6,13,14)            119.9972         estimate D2E/DX2                !
 ! A26   A(6,13,15)            120.0043         estimate D2E/DX2                !
 ! A27   A(14,13,15)           119.9985         estimate D2E/DX2                !
 ! A28   A(13,14,16)           120.0086         estimate D2E/DX2                !
 ! A29   A(13,14,17)           119.9808         estimate D2E/DX2                !
 ! A30   A(16,14,17)           120.0105         estimate D2E/DX2                !
 ! A31   A(13,15,18)           120.0            estimate D2E/DX2                !
 ! A32   A(13,15,19)           120.008          estimate D2E/DX2                !
 ! A33   A(18,15,19)           119.992          estimate D2E/DX2                !
 ! A34   A(14,16,20)           119.9942         estimate D2E/DX2                !
 ! A35   A(14,16,21)           120.0128         estimate D2E/DX2                !
 ! A36   A(20,16,21)           119.993          estimate D2E/DX2                !
 ! A37   A(15,18,20)           120.0047         estimate D2E/DX2                !
 ! A38   A(15,18,22)           119.984          estimate D2E/DX2                !
 ! A39   A(20,18,22)           120.0113         estimate D2E/DX2                !
 ! A40   A(16,20,18)           119.994          estimate D2E/DX2                !
 ! A41   A(16,20,23)           119.9811         estimate D2E/DX2                !
 ! A42   A(18,20,23)           120.0249         estimate D2E/DX2                !
 ! A43   A(3,24,25)            119.9972         estimate D2E/DX2                !
 ! A44   A(3,24,26)            120.0043         estimate D2E/DX2                !
 ! A45   A(25,24,26)           119.9985         estimate D2E/DX2                !
 ! A46   A(24,25,27)           120.0086         estimate D2E/DX2                !
 ! A47   A(24,25,28)           119.9808         estimate D2E/DX2                !
 ! A48   A(27,25,28)           120.0105         estimate D2E/DX2                !
 ! A49   A(24,26,29)           120.0            estimate D2E/DX2                !
 ! A50   A(24,26,30)           120.008          estimate D2E/DX2                !
 ! A51   A(29,26,30)           119.992          estimate D2E/DX2                !
 ! A52   A(25,27,31)           119.9942         estimate D2E/DX2                !
 ! A53   A(25,27,32)           120.0128         estimate D2E/DX2                !
 ! A54   A(31,27,32)           119.993          estimate D2E/DX2                !
 ! A55   A(26,29,31)           120.0047         estimate D2E/DX2                !
 ! A56   A(26,29,33)           119.984          estimate D2E/DX2                !
 ! A57   A(31,29,33)           120.0113         estimate D2E/DX2                !
 ! A58   A(27,31,29)           119.994          estimate D2E/DX2                !
 ! A59   A(27,31,34)           119.9811         estimate D2E/DX2                !
 ! A60   A(29,31,34)           120.0249         estimate D2E/DX2                !
 ! D1    D(3,1,2,5)              0.0076         estimate D2E/DX2                !
 ! D2    D(3,1,2,9)           -179.9996         estimate D2E/DX2                !
 ! D3    D(12,1,2,5)           179.9834         estimate D2E/DX2                !
 ! D4    D(12,1,2,9)            -0.0239         estimate D2E/DX2                !
 ! D5    D(2,1,3,4)             -0.0038         estimate D2E/DX2                !
 ! D6    D(2,1,3,24)           179.9962         estimate D2E/DX2                !
 ! D7    D(12,1,3,4)          -179.9784         estimate D2E/DX2                !
 ! D8    D(12,1,3,24)            0.0216         estimate D2E/DX2                !
 ! D9    D(1,2,5,4)             -0.0085         estimate D2E/DX2                !
 ! D10   D(1,2,5,6)            179.9935         estimate D2E/DX2                !
 ! D11   D(9,2,5,4)            179.9998         estimate D2E/DX2                !
 ! D12   D(9,2,5,6)              0.0019         estimate D2E/DX2                !
 ! D13   D(1,3,4,5)             -0.002          estimate D2E/DX2                !
 ! D14   D(1,3,4,7)            179.9993         estimate D2E/DX2                !
 ! D15   D(24,3,4,5)           179.998          estimate D2E/DX2                !
 ! D16   D(24,3,4,7)            -0.0007         estimate D2E/DX2                !
 ! D17   D(1,3,24,25)            0.0            estimate D2E/DX2                !
 ! D18   D(1,3,24,26)          179.9948         estimate D2E/DX2                !
 ! D19   D(4,3,24,25)          180.0            estimate D2E/DX2                !
 ! D20   D(4,3,24,26)           -0.0053         estimate D2E/DX2                !
 ! D21   D(3,4,5,2)              0.0069         estimate D2E/DX2                !
 ! D22   D(3,4,5,6)           -179.9944         estimate D2E/DX2                !
 ! D23   D(7,4,5,2)           -179.994          estimate D2E/DX2                !
 ! D24   D(7,4,5,6)              0.0047         estimate D2E/DX2                !
 ! D25   D(3,4,7,8)            179.9926         estimate D2E/DX2                !
 ! D26   D(3,4,7,10)             0.0137         estimate D2E/DX2                !
 ! D27   D(5,4,7,8)             -0.0061         estimate D2E/DX2                !
 ! D28   D(5,4,7,10)          -179.985          estimate D2E/DX2                !
 ! D29   D(2,5,6,8)            179.9968         estimate D2E/DX2                !
 ! D30   D(2,5,6,13)            -0.0041         estimate D2E/DX2                !
 ! D31   D(4,5,6,8)             -0.0011         estimate D2E/DX2                !
 ! D32   D(4,5,6,13)           179.998          estimate D2E/DX2                !
 ! D33   D(5,6,8,7)             -0.0031         estimate D2E/DX2                !
 ! D34   D(5,6,8,11)           179.9734         estimate D2E/DX2                !
 ! D35   D(13,6,8,7)           179.9977         estimate D2E/DX2                !
 ! D36   D(13,6,8,11)           -0.0258         estimate D2E/DX2                !
 ! D37   D(5,6,13,14)            0.001          estimate D2E/DX2                !
 ! D38   D(5,6,13,15)          179.9957         estimate D2E/DX2                !
 ! D39   D(8,6,13,14)          180.0            estimate D2E/DX2                !
 ! D40   D(8,6,13,15)           -0.0053         estimate D2E/DX2                !
 ! D41   D(4,7,8,6)              0.0057         estimate D2E/DX2                !
 ! D42   D(4,7,8,11)          -179.9718         estimate D2E/DX2                !
 ! D43   D(10,7,8,6)           179.9873         estimate D2E/DX2                !
 ! D44   D(10,7,8,11)            0.0098         estimate D2E/DX2                !
 ! D45   D(6,13,14,16)        -179.9729         estimate D2E/DX2                !
 ! D46   D(6,13,14,17)          -0.052          estimate D2E/DX2                !
 ! D47   D(15,13,14,16)          0.0323         estimate D2E/DX2                !
 ! D48   D(15,13,14,17)        179.9532         estimate D2E/DX2                !
 ! D49   D(6,13,15,18)        -179.9798         estimate D2E/DX2                !
 ! D50   D(6,13,15,19)          -0.0055         estimate D2E/DX2                !
 ! D51   D(14,13,15,18)          0.0149         estimate D2E/DX2                !
 ! D52   D(14,13,15,19)        179.9892         estimate D2E/DX2                !
 ! D53   D(13,14,16,20)         -0.0568         estimate D2E/DX2                !
 ! D54   D(13,14,16,21)        179.9619         estimate D2E/DX2                !
 ! D55   D(17,14,16,20)       -179.9777         estimate D2E/DX2                !
 ! D56   D(17,14,16,21)          0.041          estimate D2E/DX2                !
 ! D57   D(13,15,18,20)         -0.0376         estimate D2E/DX2                !
 ! D58   D(13,15,18,22)        179.975          estimate D2E/DX2                !
 ! D59   D(19,15,18,20)        179.9881         estimate D2E/DX2                !
 ! D60   D(19,15,18,22)          0.0007         estimate D2E/DX2                !
 ! D61   D(14,16,20,18)          0.0341         estimate D2E/DX2                !
 ! D62   D(14,16,20,23)       -179.9964         estimate D2E/DX2                !
 ! D63   D(21,16,20,18)       -179.9846         estimate D2E/DX2                !
 ! D64   D(21,16,20,23)         -0.0151         estimate D2E/DX2                !
 ! D65   D(15,18,20,16)          0.0131         estimate D2E/DX2                !
 ! D66   D(15,18,20,23)       -179.9563         estimate D2E/DX2                !
 ! D67   D(22,18,20,16)       -179.9995         estimate D2E/DX2                !
 ! D68   D(22,18,20,23)          0.031          estimate D2E/DX2                !
 ! D69   D(3,24,25,27)        -179.9729         estimate D2E/DX2                !
 ! D70   D(3,24,25,28)          -0.052          estimate D2E/DX2                !
 ! D71   D(26,24,25,27)          0.0323         estimate D2E/DX2                !
 ! D72   D(26,24,25,28)        179.9532         estimate D2E/DX2                !
 ! D73   D(3,24,26,29)        -179.9798         estimate D2E/DX2                !
 ! D74   D(3,24,26,30)          -0.0055         estimate D2E/DX2                !
 ! D75   D(25,24,26,29)          0.0149         estimate D2E/DX2                !
 ! D76   D(25,24,26,30)        179.9892         estimate D2E/DX2                !
 ! D77   D(24,25,27,31)         -0.0568         estimate D2E/DX2                !
 ! D78   D(24,25,27,32)        179.9619         estimate D2E/DX2                !
 ! D79   D(28,25,27,31)       -179.9777         estimate D2E/DX2                !
 ! D80   D(28,25,27,32)          0.041          estimate D2E/DX2                !
 ! D81   D(24,26,29,31)         -0.0376         estimate D2E/DX2                !
 ! D82   D(24,26,29,33)        179.975          estimate D2E/DX2                !
 ! D83   D(30,26,29,31)        179.9881         estimate D2E/DX2                !
 ! D84   D(30,26,29,33)          0.0007         estimate D2E/DX2                !
 ! D85   D(25,27,31,29)          0.0341         estimate D2E/DX2                !
 ! D86   D(25,27,31,34)       -179.9964         estimate D2E/DX2                !
 ! D87   D(32,27,31,29)       -179.9846         estimate D2E/DX2                !
 ! D88   D(32,27,31,34)         -0.0151         estimate D2E/DX2                !
 ! D89   D(26,29,31,27)          0.0131         estimate D2E/DX2                !
 ! D90   D(26,29,31,34)       -179.9563         estimate D2E/DX2                !
 ! D91   D(33,29,31,27)       -179.9995         estimate D2E/DX2                !
 ! D92   D(33,29,31,34)          0.0311         estimate D2E/DX2                !
 --------------------------------------------------------------------------------
 Trust Radius=3.00D-01 FncErr=1.00D-07 GrdErr=1.00D-06
 Number of steps in this run=    199 maximum allowed number of steps=    204.
 GradGradGradGradGradGradGradGradGradGradGradGradGradGradGradGradGradGrad

                          Input orientation:                          
 ---------------------------------------------------------------------
 Center     Atomic      Atomic             Coordinates (Angstroms)
 Number     Number       Type             X           Y           Z
 ---------------------------------------------------------------------
      1          7           0        1.763060   -1.182831    0.000098
      2          6           0        1.809699    0.249986   -0.000043
      3          6           0        0.470186   -1.667167    0.000045
      4          6           0       -0.391086   -0.606739   -0.000044
      5          6           0        0.391086    0.606739    0.000000
      6          6           0       -0.470186    1.667167    0.000037
      7          6           0       -1.809699   -0.249986   -0.000147
      8          7           0       -1.763060    1.182831   -0.000007
      9          8           0        2.843142    0.898856   -0.000034
     10          8           0       -2.843143   -0.898856    0.000017
     11          1           0       -2.603372    1.742849    0.000387
     12          1           0        2.603373   -1.742849   -0.000143
     13          6           0       -0.188929    3.181266    0.000132
     14          6           0        1.126418    3.646383    0.000175
     15          6           0       -1.249130    4.087645    0.000064
     16          6           0        1.381413    5.017586    0.000832
     17          1           0        1.962038    2.931554    0.001006
     18          6           0       -0.994227    5.459298   -0.000274
     19          1           0       -2.285890    3.721232   -0.000149
     20          6           0        0.320778    5.924377    0.000248
     21          1           0        2.418157    5.384271    0.001500
     22          1           0       -1.830349    6.173703   -0.000743
     23          1           0        0.522078    7.005476    0.000707
     24          6           0        0.188931   -3.181266    0.000088
     25          6           0        1.249496   -4.087728    0.000182
     26          6           0       -1.126046   -3.646437    0.000143
     27          6           0        0.995048   -5.459033   -0.000350
     28          1           0        2.286084   -3.720677   -0.000639
     29          6           0       -1.380742   -5.018129    0.000607
     30          1           0       -1.962056   -2.932142    0.000249
     31          6           0       -0.320482   -5.924432    0.000222
     32          1           0        1.830945   -6.173576   -0.000910
     33          1           0       -2.417646   -5.384604    0.001066
     34          1           0       -0.520859   -7.005702   -0.000138
 ---------------------------------------------------------------------
                    Distance matrix (angstroms):
                    1          2          3          4          5
     1  N    0.000000
     2  C    1.433576   0.000000
     3  C    1.380617   2.338754   0.000000
     4  C    2.229849   2.361659   1.366125   0.000000
     5  C    2.254966   1.462783   2.275281   1.443718   0.000000
     6  C    3.620756   2.684451   3.464402   2.275281   1.366125
     7  C    3.692534   3.653767   2.684451   1.462783   2.361659
     8  N    4.246160   3.692534   3.620756   2.254966   2.229849
     9  O    2.345207   1.220261   3.495053   3.567499   2.469395
    10  O    4.614948   4.792575   3.401243   2.469396   3.567500
    11  H    5.255981   4.658738   4.590748   3.227193   3.202737
    12  H    1.009825   2.145066   2.134529   3.202738   3.227193
    13  C    4.780753   3.547804   4.893029   3.793395   2.639054
    14  C    4.870998   3.464446   5.353919   4.515735   3.127322
    15  C    6.070519   4.907551   6.006155   4.772156   3.847988
    16  C    6.212151   4.786798   6.746574   5.897015   4.520655
    17  H    4.119194   2.685892   4.834652   4.249319   2.805825
    18  C    7.191698   5.915990   7.275371   6.095949   5.046427
    19  H    6.359547   5.368743   6.052339   4.724576   4.106856
    20  C    7.252074   5.866481   7.593014   6.569797   5.318103
    21  H    6.599696   5.170214   7.315557   6.616952   5.189782
    22  H    8.187258   6.952725   8.171396   6.931513   5.993819
    23  H    8.281812   6.877108   8.672798   7.666791   6.400077
    24  C    2.543939   3.794783   1.540000   2.639054   3.793395
    25  C    2.949944   4.373738   2.542919   3.848219   4.772304
    26  C    3.796879   4.878597   2.542728   3.127288   4.515661
    27  C    4.344622   5.766849   3.828019   5.046397   6.095765
    28  H    2.591180   3.999138   2.741238   4.106561   4.724145
    29  C    4.959133   6.158892   3.828169   4.521038   5.897331
    30  H    4.115408   4.934783   2.741526   2.806323   4.249819
    31  C    5.179182   6.531547   4.330065   5.318162   6.569819
    32  H    4.991207   6.423597   4.707376   5.993922   6.931513
    33  H    5.927327   7.044079   4.707326   5.189889   6.617036
    34  H    6.254767   7.620795   5.429745   6.400279   7.666871
                    6          7          8          9         10
     6  C    0.000000
     7  C    2.338754   0.000000
     8  N    1.380617   1.433576   0.000000
     9  O    3.401242   4.792574   4.614947   0.000000
    10  O    3.495053   1.220262   2.345208   5.963691   0.000000
    11  H    2.134528   2.145066   1.009824   5.511519   2.652564
    12  H    4.590749   4.658739   5.255981   2.652564   5.511521
    13  C    1.540000   3.794784   2.543940   3.795109   4.867468
    14  C    2.542919   4.878777   3.797126   3.239760   6.034617
    15  C    2.542728   4.373703   2.949926   5.187973   5.235080
    16  C    3.828019   6.158775   4.959139   4.370422   7.269880
    17  H    2.741238   4.934389   4.115141   2.215447   6.145063
    18  C    3.828169   5.767228   4.345029   5.960121   6.621527
    19  H    2.741526   3.999667   2.591685   5.854296   4.653574
    20  C    4.330065   6.531592   5.179251   5.623005   7.521097
    21  H    4.707376   7.044120   5.927451   4.505504   8.195057
    22  H    4.707326   6.423723   4.991326   7.047378   7.144708
    23  H    5.429745   7.620952   6.255002   6.532851   8.590877
    24  C    4.893029   3.547805   4.780754   4.867467   3.795111
    25  C    6.006340   4.907844   6.070773   5.235048   5.188313
    26  C    5.353927   3.464572   4.871100   6.034413   3.240003
    27  C    7.275276   5.916145   7.191767   6.621042   5.960447
    28  H    6.051932   5.368532   6.359242   4.652999   5.854199
    29  C    6.747021   4.787399   6.212735   7.269932   4.371158
    30  H    4.835217   2.686480   4.119782   6.145444   2.215980
    31  C    7.593075   5.866609   7.252187   7.521022   5.623187
    32  H    8.171442   6.952928   8.187405   7.144497   7.047679
    33  H    7.315742   5.170484   6.599977   8.194984   4.505884
    34  H    8.673017   6.877558   8.282218   8.590608   6.533496
                   11         12         13         14         15
    11  H    0.000000
    12  H    6.265803   0.000000
    13  C    2.810440   5.660729   0.000000
    14  C    4.187454   5.587953   1.395160   0.000000
    15  C    2.707774   6.988307   1.394829   2.416183   0.000000
    16  C    5.157753   6.869983   2.416205   1.394712   2.790080
    17  H    4.717625   4.718194   2.165414   1.099655   3.412938
    18  C    4.049857   8.050693   2.416183   2.789946   1.395138
    19  H    2.003696   7.332195   2.165365   3.413128   1.099604
    20  C    5.102532   7.999787   2.790065   2.416260   2.416236
    21  H    6.202879   7.129527   3.413229   2.165375   3.889760
    22  H    4.497781   9.073571   3.413055   3.889707   2.165516
    23  H    6.120758   8.992495   3.889745   3.413024   3.413344
    24  C    5.660730   2.810440   6.373742   6.891710   7.409796
    25  C    6.988577   2.707663   7.409948   7.735089   8.548675
    26  C    5.588103   4.187149   6.891713   7.632746   7.735061
    27  C    8.050822   4.049288   8.721041   9.106363   9.806905
    28  H    7.331909   2.003116   7.332292   7.457774   8.571325
    29  C    6.870637   5.157580   8.285559   9.019956   9.106725
    30  H    4.718774   4.717792   6.365354   7.267438   7.055896
    31  C    7.999924   5.102408   9.106648   9.679567  10.055052
    32  H    9.073751   4.497553   9.570421   9.845199  10.713520
    33  H    7.129873   6.202662   8.851063   9.701501   9.544052
    34  H    8.992998   6.120331  10.192374  10.778703  11.117226
                   16         17         18         19         20
    16  C    0.000000
    17  H    2.165330   0.000000
    18  C    2.416356   3.889601   0.000000
    19  H    3.889684   4.320704   2.165471   0.000000
    20  C    1.395427   3.413316   1.394825   3.412999   0.000000
    21  H    1.099680   2.494768   3.413209   4.989364   2.165806
    22  H    3.413506   4.989362   1.099761   2.494420   2.165528
    23  H    2.165678   4.320917   2.165606   4.320988   1.099680
    24  C    8.285118   6.364784   8.721193   7.332750   9.106597
    25  C    9.106269   7.055355   9.807140   8.571978  10.055086
    26  C    9.019570   7.266789   9.106689   7.458404   9.679554
    27  C   10.483741   8.446124  11.098071   9.748940  11.403362
    28  H    8.784968   6.660119   9.748455   8.734126   9.843246
    29  C   10.408894   8.623899  10.484554   8.786110  11.074006
    30  H    8.624208   7.055597   8.447069   6.661251   9.145997
    31  C   11.073581   9.145402  11.403651   9.843865  11.866149
    32  H   11.200187   9.106074  11.971022  10.717069  12.191845
    33  H   11.074223   9.398942  10.936926   9.106790  11.635808
    34  H   12.172843  10.242746  12.473986  10.871176  12.957442
                   21         22         23         24         25
    21  H    0.000000
    22  H    4.321228   0.000000
    23  H    2.494678   2.495147   0.000000
    24  C    8.850869   9.570420  10.192188   0.000000
    25  C    9.543822  10.713655  11.117027   1.395160   0.000000
    26  C    9.701292   9.845364  10.778662   1.394829   2.416183
    27  C   10.936292  11.970941  12.473479   2.416205   1.394712
    28  H    9.105906  10.716519  10.870237   2.165414   1.099655
    29  C   11.074365  11.200860  12.173241   2.416183   2.789946
    30  H    9.399415   9.106798  10.243397   2.165365   3.413128
    31  C   11.635588  12.191988  12.957331   2.790065   2.416260
    32  H   11.572755  12.878680  13.243887   3.413229   2.165375
    33  H   11.804816  11.573219  12.734051   3.413055   3.889707
    34  H   12.733784  13.244301  14.049940   3.889745   3.413024
                   26         27         28         29         30
    26  C    0.000000
    27  C    2.790080   0.000000
    28  H    3.412938   2.165330   0.000000
    29  C    1.395138   2.416356   3.889601   0.000000
    30  H    1.099604   3.889684   4.320704   2.165471   0.000000
    31  C    2.416236   1.395427   3.413316   1.394825   3.412999
    32  H    3.889760   1.099680   2.494768   3.413209   4.989364
    33  H    2.165516   3.413506   4.989362   1.099761   2.494420
    34  H    3.413344   2.165678   4.320917   2.165606   4.320988
                   31         32         33         34
    31  C    0.000000
    32  H    2.165806   0.000000
    33  H    2.165528   4.321228   0.000000
    34  H    1.099680   2.494678   2.495147   0.000000
 Stoichiometry    C18H12N2O2
 Framework group  C1[X(C18H12N2O2)]
 Deg. of freedom    96
 Full point group                 C1      NOp   1
 Largest Abelian subgroup         C1      NOp   1
 Largest concise Abelian subgroup C1      NOp   1
                         Standard orientation:                         
 ---------------------------------------------------------------------
 Center     Atomic      Atomic             Coordinates (Angstroms)
 Number     Number       Type             X           Y           Z
 ---------------------------------------------------------------------
      1          7           0       -1.151035   -1.783850    0.000003
      2          6           0        0.282387   -1.804812   -0.000138
      3          6           0       -1.658456   -0.499860   -0.000050
      4          6           0       -0.613628    0.380271   -0.000139
      5          6           0        0.613668   -0.380035   -0.000095
      6          6           0        1.658496    0.500097   -0.000058
      7          6           0       -0.282348    1.805048   -0.000242
      8          7           0        1.151075    1.784086   -0.000102
      9          8           0        0.949668   -2.826464   -0.000129
     10          8           0       -0.949628    2.826701   -0.000078
     11          1           0        1.695949    2.634296    0.000292
     12          1           0       -1.695909   -2.634061   -0.000238
     13          6           0        3.177390    0.246011    0.000038
     14          6           0        3.665997   -1.060792    0.000081
     15          6           0        4.064630    1.322279   -0.000030
     16          6           0        5.041549   -1.291181    0.000738
     17          1           0        2.966254   -1.909085    0.000911
     18          6           0        5.440630    1.091991   -0.000369
     19          1           0        3.679702    2.352309   -0.000244
     20          6           0        5.929193   -0.214471    0.000153
     21          1           0        5.426749   -2.321189    0.001406
     22          1           0        6.139941    1.940778   -0.000838
     23          1           0        7.013724   -0.396370    0.000612
     24          6           0       -3.177351   -0.245776   -0.000007
     25          6           0       -4.064666   -1.322411    0.000087
     26          6           0       -3.666005    1.060656    0.000049
     27          6           0       -5.440310   -1.092571   -0.000445
     28          1           0       -3.679104   -2.352257   -0.000734
     29          6           0       -5.042040    1.290737    0.000512
     30          1           0       -2.966803    1.909329    0.000154
     31          6           0       -5.929203    0.214410    0.000128
     32          1           0       -6.139763   -1.941136   -0.001005
     33          1           0       -5.427034    2.320909    0.000972
     34          1           0       -7.013889    0.395383   -0.000233
 ---------------------------------------------------------------------
 Rotational constants (GHZ):      0.8102141      0.1422081      0.1209747
 Standard basis: 6-31+G(d,p) (6D, 7F)
 There are   478 symmetry adapted basis functions of A   symmetry.
 Integral buffers will be    262144 words long.
 Raffenetti 2 integral format.
 Two-electron integral symmetry is turned on.
   478 basis functions,   788 primitive gaussians,   478 cartesian basis functions
    75 alpha electrons       75 beta electrons
       nuclear repulsion energy      1588.5728620470 Hartrees.
 NAtoms=   34 NActive=   34 NUniq=   34 SFac= 1.00D+00 NAtFMM=   50 NAOKFM=F Big=F
 One-electron integrals computed using PRISM.
 NBasis=   478 RedAO= T  NBF=   478
 NBsUse=   473 1.00D-06 NBFU=   473
 Harris functional with IExCor=  402 diagonalized for initial guess.
 ExpMin= 4.38D-02 ExpMax= 5.48D+03 ExpMxC= 8.25D+02 IAcc=2 IRadAn=         0 AccDes= 0.00D+00
 HarFok:  IExCor=  402 AccDes= 0.00D+00 IRadAn=         0 IDoV= 1
 ScaDFX=  1.000000  1.000000  1.000000  1.000000
 FoFCou: FMM=F IPFlag=           0 FMFlag=      100000 FMFlg1=           0
         NFxFlg=           0 DoJE=T BraDBF=F KetDBF=T FulRan=T
         Omega=  0.000000  0.000000  1.000000  0.000000  0.000000 ICntrl=     500 IOpCl=  0
         NMat0=    1 NMatS0=    1 NMatT0=    0 NMatD0=    1 NMtDS0=    0 NMtDT0=    0
         I1Cent=           4 NGrid=           0.
 Petite list used in FoFCou.
 DSYEVD returned Info=      210929 IAlg= 4 N=   473 NDim=   473 NE2=       69968 trying DSYEV.
 Initial guess orbital symmetries:
       Occupied  (A) (A) (A) (A) (A) (A) (A) (A) (A) (A) (A) (A)
                 (A) (A) (A) (A) (A) (A) (A) (A) (A) (A) (A) (A)
                 (A) (A) (A) (A) (A) (A) (A) (A) (A) (A) (A) (A)
                 (A) (A) (A) (A) (A) (A) (A) (A) (A) (A) (A) (A)
                 (A) (A) (A) (A) (A) (A) (A) (A) (A) (A) (A) (A)
                 (A) (A) (A) (A) (A) (A) (A) (A) (A) (A) (A) (A)
                 (A) (A) (A)
       Virtual   (A) (A) (A) (A) (A) (A) (A) (A) (A) (A) (A) (A)
                 (A) (A) (A) (A) (A) (A) (A) (A) (A) (A) (A) (A)
                 (A) (A) (A) (A) (A) (A) (A) (A) (A) (A) (A) (A)
                 (A) (A) (A) (A) (A) (A) (A) (A) (A) (A) (A) (A)
                 (A) (A) (A) (A) (A) (A) (A) (A) (A) (A) (A) (A)
                 (A) (A) (A) (A) (A) (A) (A) (A) (A) (A) (A) (A)
                 (A) (A) (A) (A) (A) (A) (A) (A) (A) (A) (A) (A)
                 (A) (A) (A) (A) (A) (A) (A) (A) (A) (A) (A) (A)
                 (A) (A) (A) (A) (A) (A) (A) (A) (A) (A) (A) (A)
                 (A) (A) (A) (A) (A) (A) (A) (A) (A) (A) (A) (A)
                 (A) (A) (A) (A) (A) (A) (A) (A) (A) (A) (A) (A)
                 (A) (A) (A) (A) (A) (A) (A) (A) (A) (A) (A) (A)
                 (A) (A) (A) (A) (A) (A) (A) (A) (A) (A) (A) (A)
                 (A) (A) (A) (A) (A) (A) (A) (A) (A) (A) (A) (A)
                 (A) (A) (A) (A) (A) (A) (A) (A) (A) (A) (A) (A)
                 (A) (A) (A) (A) (A) (A) (A) (A) (A) (A) (A) (A)
                 (A) (A) (A) (A) (A) (A) (A) (A) (A) (A) (A) (A)
                 (A) (A) (A) (A) (A) (A) (A) (A) (A) (A) (A) (A)
                 (A) (A) (A) (A) (A) (A) (A) (A) (A) (A) (A) (A)
                 (A) (A) (A) (A) (A) (A) (A) (A) (A) (A) (A) (A)
                 (A) (A) (A) (A) (A) (A) (A) (A) (A) (A) (A) (A)
                 (A) (A) (A) (A) (A) (A) (A) (A) (A) (A) (A) (A)
                 (A) (A) (A) (A) (A) (A) (A) (A) (A) (A) (A) (A)
                 (A) (A) (A) (A) (A) (A) (A) (A) (A) (A) (A) (A)
                 (A) (A) (A) (A) (A) (A) (A) (A) (A) (A) (A) (A)
                 (A) (A) (A) (A) (A) (A) (A) (A) (A) (A) (A) (A)
                 (A) (A) (A) (A) (A) (A) (A) (A) (A) (A) (A) (A)
                 (A) (A) (A) (A) (A) (A) (A) (A) (A) (A) (A) (A)
                 (A) (A) (A) (A) (A) (A) (A) (A) (A) (A) (A) (A)
                 (A) (A) (A) (A) (A) (A) (A) (A) (A) (A) (A) (A)
                 (A) (A) (A) (A) (A) (A) (A) (A) (A) (A) (A) (A)
                 (A) (A) (A) (A) (A) (A) (A) (A) (A) (A) (A) (A)
                 (A) (A) (A) (A) (A) (A) (A) (A) (A) (A) (A) (A)
                 (A) (A)
 The electronic state of the initial guess is 1-A.
 Requested convergence on RMS density matrix=1.00D-08 within 128 cycles.
 Requested convergence on MAX density matrix=1.00D-06.
 Requested convergence on             energy=1.00D-06.
 No special actions if energy rises.
 SCF Done:  E(RB3LYP) =  -953.166117500     A.U. after   16 cycles
             Convg  =    0.2809D-08             -V/T =  2.0097

 **********************************************************************

            Population analysis using the SCF density.

 **********************************************************************

 Orbital symmetries:
       Occupied  (A) (A) (A) (A) (A) (A) (A) (A) (A) (A) (A) (A)
                 (A) (A) (A) (A) (A) (A) (A) (A) (A) (A) (A) (A)
                 (A) (A) (A) (A) (A) (A) (A) (A) (A) (A) (A) (A)
                 (A) (A) (A) (A) (A) (A) (A) (A) (A) (A) (A) (A)
                 (A) (A) (A) (A) (A) (A) (A) (A) (A) (A) (A) (A)
                 (A) (A) (A) (A) (A) (A) (A) (A) (A) (A) (A) (A)
                 (A) (A) (A)
       Virtual   (A) (A) (A) (A) (A) (A) (A) (A) (A) (A) (A) (A)
                 (A) (A) (A) (A) (A) (A) (A) (A) (A) (A) (A) (A)
                 (A) (A) (A) (A) (A) (A) (A) (A) (A) (A) (A) (A)
                 (A) (A) (A) (A) (A) (A) (A) (A) (A) (A) (A) (A)
                 (A) (A) (A) (A) (A) (A) (A) (A) (A) (A) (A) (A)
                 (A) (A) (A) (A) (A) (A) (A) (A) (A) (A) (A) (A)
                 (A) (A) (A) (A) (A) (A) (A) (A) (A) (A) (A) (A)
                 (A) (A) (A) (A) (A) (A) (A) (A) (A) (A) (A) (A)
                 (A) (A) (A) (A) (A) (A) (A) (A) (A) (A) (A) (A)
                 (A) (A) (A) (A) (A) (A) (A) (A) (A) (A) (A) (A)
                 (A) (A) (A) (A) (A) (A) (A) (A) (A) (A) (A) (A)
                 (A) (A) (A) (A) (A) (A) (A) (A) (A) (A) (A) (A)
                 (A) (A) (A) (A) (A) (A) (A) (A) (A) (A) (A) (A)
                 (A) (A) (A) (A) (A) (A) (A) (A) (A) (A) (A) (A)
                 (A) (A) (A) (A) (A) (A) (A) (A) (A) (A) (A) (A)
                 (A) (A) (A) (A) (A) (A) (A) (A) (A) (A) (A) (A)
                 (A) (A) (A) (A) (A) (A) (A) (A) (A) (A) (A) (A)
                 (A) (A) (A) (A) (A) (A) (A) (A) (A) (A) (A) (A)
                 (A) (A) (A) (A) (A) (A) (A) (A) (A) (A) (A) (A)
                 (A) (A) (A) (A) (A) (A) (A) (A) (A) (A) (A) (A)
                 (A) (A) (A) (A) (A) (A) (A) (A) (A) (A) (A) (A)
                 (A) (A) (A) (A) (A) (A) (A) (A) (A) (A) (A) (A)
                 (A) (A) (A) (A) (A) (A) (A) (A) (A) (A) (A) (A)
                 (A) (A) (A) (A) (A) (A) (A) (A) (A) (A) (A) (A)
                 (A) (A) (A) (A) (A) (A) (A) (A) (A) (A) (A) (A)
                 (A) (A) (A) (A) (A) (A) (A) (A) (A) (A) (A) (A)
                 (A) (A) (A) (A) (A) (A) (A) (A) (A) (A) (A) (A)
                 (A) (A) (A) (A) (A) (A) (A) (A) (A) (A) (A) (A)
                 (A) (A) (A) (A) (A) (A) (A) (A) (A) (A) (A) (A)
                 (A) (A) (A) (A) (A) (A) (A) (A) (A) (A) (A) (A)
                 (A) (A) (A) (A) (A) (A) (A) (A) (A) (A) (A) (A)
                 (A) (A) (A) (A) (A) (A) (A) (A) (A) (A) (A) (A)
                 (A) (A) (A) (A) (A) (A) (A) (A) (A) (A) (A) (A)
                 (A) (A)
 The electronic state is 1-A.
 Alpha  occ. eigenvalues --  -19.14686 -19.14686 -14.39736 -14.39736 -10.31534
 Alpha  occ. eigenvalues --  -10.31534 -10.27826 -10.27825 -10.23224 -10.23224
 Alpha  occ. eigenvalues --  -10.21992 -10.21992 -10.21512 -10.21510 -10.21380
 Alpha  occ. eigenvalues --  -10.21379 -10.21054 -10.21054 -10.20754 -10.20751
 Alpha  occ. eigenvalues --  -10.20359 -10.20319  -1.06268  -1.05846  -0.98940
 Alpha  occ. eigenvalues --   -0.97494  -0.87838  -0.87827  -0.82213  -0.79056
 Alpha  occ. eigenvalues --   -0.78268  -0.76639  -0.76483  -0.73240  -0.69146
 Alpha  occ. eigenvalues --   -0.69106  -0.63263  -0.62568  -0.61993  -0.61239
 Alpha  occ. eigenvalues --   -0.57967  -0.56201  -0.54396  -0.54267  -0.50619
 Alpha  occ. eigenvalues --   -0.49910  -0.48766  -0.47659  -0.47477  -0.46979
 Alpha  occ. eigenvalues --   -0.46550  -0.45631  -0.45228  -0.44156  -0.43785
 Alpha  occ. eigenvalues --   -0.43625  -0.43524  -0.43309  -0.39932  -0.39755
 Alpha  occ. eigenvalues --   -0.39207  -0.37057  -0.36588  -0.36157  -0.36124
 Alpha  occ. eigenvalues --   -0.35797  -0.35273  -0.29088  -0.28004  -0.27823
 Alpha  occ. eigenvalues --   -0.27739  -0.27280  -0.27269  -0.26994  -0.21192
 Alpha virt. eigenvalues --   -0.10149  -0.04550  -0.02902  -0.02829  -0.01199
 Alpha virt. eigenvalues --   -0.01086  -0.00653   0.01027   0.01057   0.01125
 Alpha virt. eigenvalues --    0.01892   0.02985   0.03238   0.03637   0.03823
 Alpha virt. eigenvalues --    0.04680   0.05142   0.05247   0.05926   0.06744
 Alpha virt. eigenvalues --    0.06920   0.07069   0.07390   0.07837   0.08100
 Alpha virt. eigenvalues --    0.08743   0.09195   0.09301   0.09838   0.10068
 Alpha virt. eigenvalues --    0.10312   0.10584   0.10892   0.11676   0.12208
 Alpha virt. eigenvalues --    0.12711   0.12815   0.13069   0.13829   0.14101
 Alpha virt. eigenvalues --    0.14323   0.14613   0.14743   0.15067   0.15107
 Alpha virt. eigenvalues --    0.15186   0.16082   0.16173   0.16455   0.16843
 Alpha virt. eigenvalues --    0.17461   0.17872   0.18202   0.18269   0.18716
 Alpha virt. eigenvalues --    0.18761   0.18938   0.19635   0.19810   0.19941
 Alpha virt. eigenvalues --    0.19941   0.20582   0.21024   0.21382   0.21617
 Alpha virt. eigenvalues --    0.21837   0.22155   0.22489   0.22560   0.22872
 Alpha virt. eigenvalues --    0.23112   0.23117   0.24271   0.24307   0.24615
 Alpha virt. eigenvalues --    0.24858   0.25039   0.25072   0.25632   0.25697
 Alpha virt. eigenvalues --    0.25813   0.26628   0.27483   0.27591   0.28079
 Alpha virt. eigenvalues --    0.28288   0.28528   0.28729   0.29165   0.29621
 Alpha virt. eigenvalues --    0.30192   0.30653   0.30846   0.31246   0.31469
 Alpha virt. eigenvalues --    0.31945   0.32027   0.32443   0.32859   0.33548
 Alpha virt. eigenvalues --    0.33734   0.34510   0.35087   0.35194   0.35733
 Alpha virt. eigenvalues --    0.36491   0.37206   0.37391   0.37525   0.38826
 Alpha virt. eigenvalues --    0.40307   0.40643   0.41243   0.41667   0.43285
 Alpha virt. eigenvalues --    0.43697   0.45728   0.47343   0.47889   0.49211
 Alpha virt. eigenvalues --    0.49881   0.51122   0.52041   0.55947   0.56810
 Alpha virt. eigenvalues --    0.58323   0.60560   0.61416   0.61718   0.65157
 Alpha virt. eigenvalues --    0.66396   0.66536   0.68103   0.68570   0.68799
 Alpha virt. eigenvalues --    0.69267   0.69323   0.69701   0.70337   0.70684
 Alpha virt. eigenvalues --    0.71640   0.71674   0.72210   0.72342   0.73349
 Alpha virt. eigenvalues --    0.73424   0.73427   0.73838   0.74931   0.75001
 Alpha virt. eigenvalues --    0.76113   0.77155   0.78264   0.78719   0.78897
 Alpha virt. eigenvalues --    0.79154   0.80079   0.80692   0.81875   0.82261
 Alpha virt. eigenvalues --    0.83357   0.85116   0.86496   0.86613   0.87631
 Alpha virt. eigenvalues --    0.88475   0.90836   0.91554   0.91913   0.92291
 Alpha virt. eigenvalues --    0.94469   0.95117   0.96924   0.96970   0.97811
 Alpha virt. eigenvalues --    0.98033   0.98051   0.99901   1.00931   1.01692
 Alpha virt. eigenvalues --    1.02894   1.04712   1.06340   1.07321   1.08443
 Alpha virt. eigenvalues --    1.09874   1.10486   1.11171   1.12456   1.13193
 Alpha virt. eigenvalues --    1.13418   1.14622   1.16687   1.17522   1.18589
 Alpha virt. eigenvalues --    1.19561   1.21021   1.21786   1.22626   1.23203
 Alpha virt. eigenvalues --    1.23534   1.23852   1.24359   1.25095   1.26388
 Alpha virt. eigenvalues --    1.26894   1.27305   1.29624   1.29899   1.30029
 Alpha virt. eigenvalues --    1.30867   1.31385   1.33051   1.33152   1.33309
 Alpha virt. eigenvalues --    1.34064   1.35052   1.35338   1.36550   1.36692
 Alpha virt. eigenvalues --    1.37489   1.38276   1.38556   1.39084   1.39796
 Alpha virt. eigenvalues --    1.40205   1.40231   1.40827   1.41356   1.41506
 Alpha virt. eigenvalues --    1.41598   1.44872   1.45337   1.45867   1.46692
 Alpha virt. eigenvalues --    1.49833   1.53511   1.55335   1.57675   1.58480
 Alpha virt. eigenvalues --    1.59772   1.65563   1.71774   1.71955   1.73004
 Alpha virt. eigenvalues --    1.74908   1.75846   1.76765   1.79953   1.80515
 Alpha virt. eigenvalues --    1.81326   1.81557   1.83011   1.83048   1.85985
 Alpha virt. eigenvalues --    1.87052   1.88387   1.88809   1.89178   1.89510
 Alpha virt. eigenvalues --    1.90128   1.90590   1.92974   1.93220   1.94413
 Alpha virt. eigenvalues --    1.96694   1.96746   1.97408   1.98408   1.99674
 Alpha virt. eigenvalues --    2.00039   2.00063   2.01068   2.01141   2.01543
 Alpha virt. eigenvalues --    2.03564   2.04339   2.04927   2.06260   2.07393
 Alpha virt. eigenvalues --    2.08194   2.08938   2.11507   2.11555   2.13670
 Alpha virt. eigenvalues --    2.14867   2.15378   2.17405   2.17576   2.25293
 Alpha virt. eigenvalues --    2.25458   2.26882   2.27285   2.27674   2.28138
 Alpha virt. eigenvalues --    2.29118   2.31922   2.32467   2.34250   2.36016
 Alpha virt. eigenvalues --    2.36064   2.36202   2.36804   2.37153   2.38440
 Alpha virt. eigenvalues --    2.38452   2.40613   2.43363   2.43597   2.44283
 Alpha virt. eigenvalues --    2.45798   2.45853   2.47158   2.49845   2.50306
 Alpha virt. eigenvalues --    2.50447   2.51224   2.51836   2.52376   2.54632
 Alpha virt. eigenvalues --    2.55143   2.55499   2.56069   2.56571   2.56786
 Alpha virt. eigenvalues --    2.58880   2.62155   2.62277   2.63861   2.64370
 Alpha virt. eigenvalues --    2.65007   2.66661   2.66979   2.69519   2.69781
 Alpha virt. eigenvalues --    2.70583   2.72032   2.73293   2.76938   2.77192
 Alpha virt. eigenvalues --    2.79081   2.80218   2.81366   2.83451   2.85213
 Alpha virt. eigenvalues --    2.91371   2.93289   2.94449   2.99115   2.99166
 Alpha virt. eigenvalues --    3.04403   3.04660   3.05437   3.05624   3.07584
 Alpha virt. eigenvalues --    3.13780   3.17051   3.18180   3.22696   3.22718
 Alpha virt. eigenvalues --    3.24969   3.26126   3.27016   3.28442   3.30793
 Alpha virt. eigenvalues --    3.32272   3.36961   3.41487   3.41678   3.46847
 Alpha virt. eigenvalues --    3.51638   3.52149   3.56418   3.57898   3.87477
 Alpha virt. eigenvalues --    3.87603   4.24272   4.28285   4.28359   4.30231
 Alpha virt. eigenvalues --    4.31225   4.32897   4.33383   4.34421   4.37670
 Alpha virt. eigenvalues --    4.39792   4.42234   4.45361   4.47576   4.50440
 Alpha virt. eigenvalues --    4.51252   4.58213   4.67135   4.75345   4.84930
 Alpha virt. eigenvalues --    4.86955   5.03251   5.11371
          Condensed to atoms (all electrons):
              1          2          3          4          5          6
     1  N    7.401116   0.671679  -0.211097  -0.099016  -0.453451   0.028066
     2  C    0.671679   9.939706  -1.673229  -0.659638  -2.808898  -0.209995
     3  C   -0.211097  -1.673229   8.060826   0.152709   0.171927  -0.020424
     4  C   -0.099016  -0.659638   0.152709   9.864850   0.309328   0.171956
     5  C   -0.453451  -2.808898   0.171927   0.309328   9.863912   0.152830
     6  C    0.028066  -0.209995  -0.020424   0.171956   0.152830   8.057755
     7  C    0.089206   1.035322  -0.210698  -2.809708  -0.659157  -1.672437
     8  N    0.010660   0.089175   0.028151  -0.453132  -0.099349  -0.211309
     9  O   -0.096654   0.088492   0.004135  -0.022157   0.128095   0.013173
    10  O   -0.004150  -0.030111   0.013115   0.127982  -0.021987   0.004245
    11  H    0.000223   0.011173  -0.005591  -0.013768   0.057017  -0.072467
    12  H    0.301210   0.008344  -0.072445   0.057106  -0.013823  -0.005604
    13  C   -0.125599  -1.429816  -0.114153   0.136830   0.629033  -1.608295
    14  C    0.106859   0.821419  -0.102800   0.286345   0.083470  -1.202480
    15  C   -0.031436  -0.234880   0.049110  -0.700237  -1.030514   2.614410
    16  C    0.004667  -0.074321   0.081750   0.183689   0.117949   0.032578
    17  H    0.001251   0.002827   0.015142   0.023408   0.045307   0.001247
    18  C    0.003501   0.109669  -0.023010  -0.036573   0.297771  -0.411323
    19  H   -0.000054  -0.004936   0.001295   0.004289   0.013333   0.121700
    20  C    0.001339  -0.002531  -0.005524  -0.048173  -0.043012  -0.097553
    21  H   -0.000009  -0.002238  -0.000074  -0.000081  -0.000225  -0.000839
    22  H    0.000000  -0.000152  -0.000016   0.000302  -0.002033  -0.010073
    23  H    0.000000   0.000045  -0.000007  -0.000079  -0.000745  -0.001039
    24  C   -0.222964  -0.156866  -1.606249   0.627397   0.136804  -0.113995
    25  C    0.113423  -1.135691   2.621654  -1.029243  -0.699510   0.049039
    26  C   -0.233973   1.110539  -1.214856   0.083915   0.287254  -0.102608
    27  C    0.065009   0.210700  -0.412145   0.298282  -0.036836  -0.023042
    28  H   -0.016942   0.004009   0.121771   0.013327   0.004279   0.001289
    29  C    0.078055  -0.134187   0.035708   0.117190   0.182203   0.081390
    30  H    0.000060  -0.001329   0.001309   0.045258   0.023350   0.015132
    31  C   -0.014391   0.010360  -0.098534  -0.042870  -0.047957  -0.005507
    32  H    0.000599  -0.000072  -0.010089  -0.002032   0.000302  -0.000016
    33  H    0.000073  -0.000016  -0.000838  -0.000229  -0.000081  -0.000075
    34  H    0.000012  -0.000018  -0.001031  -0.000742  -0.000079  -0.000007
              7          8          9         10         11         12
     1  N    0.089206   0.010660  -0.096654  -0.004150   0.000223   0.301210
     2  C    1.035322   0.089175   0.088492  -0.030111   0.011173   0.008344
     3  C   -0.210698   0.028151   0.004135   0.013115  -0.005591  -0.072445
     4  C   -2.809708  -0.453132  -0.022157   0.127982  -0.013768   0.057106
     5  C   -0.659157  -0.099349   0.128095  -0.021987   0.057017  -0.013823
     6  C   -1.672437  -0.211309   0.013173   0.004245  -0.072467  -0.005604
     7  C    9.940668   0.671660  -0.030118   0.088539   0.008269   0.011179
     8  N    0.671660   7.401109  -0.004150  -0.096652   0.301221   0.000223
     9  O   -0.030118  -0.004150   8.442178   0.000258   0.000014   0.001747
    10  O    0.088539  -0.096652   0.000258   8.442148   0.001748   0.000014
    11  H    0.008269   0.301221   0.000014   0.001748   0.412737   0.000000
    12  H    0.011179   0.000223   0.001747   0.000014   0.000000   0.412751
    13  C   -0.156980  -0.222822   0.242224   0.032429  -0.130791  -0.004458
    14  C    1.110914  -0.234062  -0.181353  -0.013024  -0.040283   0.003571
    15  C   -1.136954   0.113633   0.032666  -0.010109   0.094413  -0.000573
    16  C   -0.134256   0.078066  -0.084046  -0.000177   0.002571   0.000602
    17  H   -0.001342   0.000059  -0.003625   0.000006   0.000002  -0.000003
    18  C    0.210523   0.064864  -0.001939  -0.004653   0.073539  -0.000003
    19  H    0.004000  -0.016911   0.000012   0.000234   0.008163   0.000000
    20  C    0.010343  -0.014355  -0.008352  -0.000014   0.001485  -0.000011
    21  H   -0.000016   0.000073   0.000195   0.000000   0.000000   0.000000
    22  H   -0.000073   0.000599  -0.000001   0.000000  -0.000004   0.000000
    23  H   -0.000018   0.000012   0.000007   0.000000   0.000000   0.000000
    24  C   -1.428858  -0.125605   0.032439   0.242021  -0.004455  -0.130841
    25  C   -0.233812  -0.031404  -0.010135   0.032595  -0.000572   0.094278
    26  C    0.819536   0.106933  -0.013024  -0.181462   0.003570  -0.040308
    27  C    0.109726   0.003501  -0.004660  -0.001934  -0.000003   0.073637
    28  H   -0.004943  -0.000054   0.000234   0.000012   0.000000   0.008172
    29  C   -0.073796   0.004665  -0.000178  -0.083797   0.000600   0.002582
    30  H    0.002846   0.001250   0.000006  -0.003614  -0.000003   0.000002
    31  C   -0.002656   0.001343  -0.000014  -0.008368  -0.000011   0.001469
    32  H   -0.000151   0.000000   0.000000  -0.000001   0.000000  -0.000004
    33  H   -0.002241  -0.000009   0.000000   0.000196   0.000000   0.000000
    34  H    0.000045   0.000000   0.000000   0.000007   0.000000   0.000000
             13         14         15         16         17         18
     1  N   -0.125599   0.106859  -0.031436   0.004667   0.001251   0.003501
     2  C   -1.429816   0.821419  -0.234880  -0.074321   0.002827   0.109669
     3  C   -0.114153  -0.102800   0.049110   0.081750   0.015142  -0.023010
     4  C    0.136830   0.286345  -0.700237   0.183689   0.023408  -0.036573
     5  C    0.629033   0.083470  -1.030514   0.117949   0.045307   0.297771
     6  C   -1.608295  -1.202480   2.614410   0.032578   0.001247  -0.411323
     7  C   -0.156980   1.110914  -1.136954  -0.134256  -0.001342   0.210523
     8  N   -0.222822  -0.234062   0.113633   0.078066   0.000059   0.064864
     9  O    0.242224  -0.181353   0.032666  -0.084046  -0.003625  -0.001939
    10  O    0.032429  -0.013024  -0.010109  -0.000177   0.000006  -0.004653
    11  H   -0.130791  -0.040283   0.094413   0.002571   0.000002   0.073539
    12  H   -0.004458   0.003571  -0.000573   0.000602  -0.000003  -0.000003
    13  C   17.929074  -7.561159  -3.206668   2.092136  -0.040841  -0.225530
    14  C   -7.561159  34.758969 -16.053104  -9.378488   0.171099   2.416747
    15  C   -3.206668 -16.053104  29.014504   1.661861  -0.055698  -5.680507
    16  C    2.092136  -9.378488   1.661861  12.397613   0.159395  -0.336452
    17  H   -0.040841   0.171099  -0.055698   0.159395   0.522559   0.002027
    18  C   -0.225530   2.416747  -5.680507  -0.336452   0.002027   8.990473
    19  H   -0.053501  -0.029689   0.168697  -0.005737  -0.000135   0.087454
    20  C   -1.078570   1.512084  -0.021111  -0.525317  -0.016338   0.598060
    21  H    0.023672  -0.024633  -0.006852   0.318803  -0.005153   0.005790
    22  H    0.020488  -0.002201   0.072256   0.000077   0.000013   0.213703
    23  H   -0.020043   0.059120   0.053845  -0.043066  -0.000145  -0.031448
    24  C    0.275863  -0.091506  -0.041357   0.000256  -0.000465  -0.007366
    25  C   -0.041355   0.108951  -0.064800   0.007841   0.000862   0.002397
    26  C   -0.091580  -0.102193   0.109059  -0.002010  -0.000578  -0.002336
    27  C   -0.007363  -0.002338   0.002400   0.000647   0.000031   0.000016
    28  H   -0.000468   0.000358  -0.000043   0.000017   0.000000   0.000000
    29  C    0.000257  -0.001991   0.007814   0.001997   0.000000   0.000646
    30  H   -0.000463  -0.000578   0.000862   0.000000   0.000000   0.000031
    31  C   -0.000419   0.000663  -0.000526  -0.000166  -0.000001  -0.000065
    32  H    0.000002  -0.000001   0.000000   0.000000   0.000000   0.000000
    33  H   -0.000001   0.000001  -0.000001   0.000000   0.000000   0.000000
    34  H    0.000000   0.000000   0.000000   0.000000   0.000000   0.000000
             19         20         21         22         23         24
     1  N   -0.000054   0.001339  -0.000009   0.000000   0.000000  -0.222964
     2  C   -0.004936  -0.002531  -0.002238  -0.000152   0.000045  -0.156866
     3  C    0.001295  -0.005524  -0.000074  -0.000016  -0.000007  -1.606249
     4  C    0.004289  -0.048173  -0.000081   0.000302  -0.000079   0.627397
     5  C    0.013333  -0.043012  -0.000225  -0.002033  -0.000745   0.136804
     6  C    0.121700  -0.097553  -0.000839  -0.010073  -0.001039  -0.113995
     7  C    0.004000   0.010343  -0.000016  -0.000073  -0.000018  -1.428858
     8  N   -0.016911  -0.014355   0.000073   0.000599   0.000012  -0.125605
     9  O    0.000012  -0.008352   0.000195  -0.000001   0.000007   0.032439
    10  O    0.000234  -0.000014   0.000000   0.000000   0.000000   0.242021
    11  H    0.008163   0.001485   0.000000  -0.000004   0.000000  -0.004455
    12  H    0.000000  -0.000011   0.000000   0.000000   0.000000  -0.130841
    13  C   -0.053501  -1.078570   0.023672   0.020488  -0.020043   0.275863
    14  C   -0.029689   1.512084  -0.024633  -0.002201   0.059120  -0.091506
    15  C    0.168697  -0.021111  -0.006852   0.072256   0.053845  -0.041357
    16  C   -0.005737  -0.525317   0.318803   0.000077  -0.043066   0.000256
    17  H   -0.000135  -0.016338  -0.005153   0.000013  -0.000145  -0.000465
    18  C    0.087454   0.598060   0.005790   0.213703  -0.031448  -0.007366
    19  H    0.623633  -0.009267   0.000016  -0.005884  -0.000159  -0.000467
    20  C   -0.009267   5.520244  -0.002088   0.018251   0.293542  -0.000420
    21  H    0.000016  -0.002088   0.559962  -0.000153  -0.005158  -0.000001
    22  H   -0.005884   0.018251  -0.000153   0.567997  -0.005377   0.000002
    23  H   -0.000159   0.293542  -0.005158  -0.005377   0.568817   0.000000
    24  C   -0.000467  -0.000420  -0.000001   0.000002   0.000000  17.925458
    25  C   -0.000043  -0.000528  -0.000001   0.000000   0.000000  -3.196936
    26  C    0.000358   0.000667   0.000001  -0.000001   0.000000  -7.568481
    27  C    0.000000  -0.000065   0.000000   0.000000   0.000000  -0.228505
    28  H    0.000000   0.000000   0.000000   0.000000   0.000000  -0.053344
    29  C    0.000017  -0.000166   0.000000   0.000000   0.000000   2.095352
    30  H    0.000000  -0.000001   0.000000   0.000000   0.000000  -0.041205
    31  C    0.000000   0.000019   0.000000   0.000000   0.000000  -1.078813
    32  H    0.000000   0.000000   0.000000   0.000000   0.000000   0.020531
    33  H    0.000000   0.000000   0.000000   0.000000   0.000000   0.023651
    34  H    0.000000   0.000000   0.000000   0.000000   0.000000  -0.019999
             25         26         27         28         29         30
     1  N    0.113423  -0.233973   0.065009  -0.016942   0.078055   0.000060
     2  C   -1.135691   1.110539   0.210700   0.004009  -0.134187  -0.001329
     3  C    2.621654  -1.214856  -0.412145   0.121771   0.035708   0.001309
     4  C   -1.029243   0.083915   0.298282   0.013327   0.117190   0.045258
     5  C   -0.699510   0.287254  -0.036836   0.004279   0.182203   0.023350
     6  C    0.049039  -0.102608  -0.023042   0.001289   0.081390   0.015132
     7  C   -0.233812   0.819536   0.109726  -0.004943  -0.073796   0.002846
     8  N   -0.031404   0.106933   0.003501  -0.000054   0.004665   0.001250
     9  O   -0.010135  -0.013024  -0.004660   0.000234  -0.000178   0.000006
    10  O    0.032595  -0.181462  -0.001934   0.000012  -0.083797  -0.003614
    11  H   -0.000572   0.003570  -0.000003   0.000000   0.000600  -0.000003
    12  H    0.094278  -0.040308   0.073637   0.008172   0.002582   0.000002
    13  C   -0.041355  -0.091580  -0.007363  -0.000468   0.000257  -0.000463
    14  C    0.108951  -0.102193  -0.002338   0.000358  -0.001991  -0.000578
    15  C   -0.064800   0.109059   0.002400  -0.000043   0.007814   0.000862
    16  C    0.007841  -0.002010   0.000647   0.000017   0.001997   0.000000
    17  H    0.000862  -0.000578   0.000031   0.000000   0.000000   0.000000
    18  C    0.002397  -0.002336   0.000016   0.000000   0.000646   0.000031
    19  H   -0.000043   0.000358   0.000000   0.000000   0.000017   0.000000
    20  C   -0.000528   0.000667  -0.000065   0.000000  -0.000166  -0.000001
    21  H   -0.000001   0.000001   0.000000   0.000000   0.000000   0.000000
    22  H    0.000000  -0.000001   0.000000   0.000000   0.000000   0.000000
    23  H    0.000000   0.000000   0.000000   0.000000   0.000000   0.000000
    24  C   -3.196936  -7.568481  -0.228505  -0.053344   2.095352  -0.041205
    25  C   28.993927 -16.048127  -5.681260   0.168381   1.662581  -0.055790
    26  C  -16.048127  34.773818   2.414099  -0.029630  -9.383402   0.171756
    27  C   -5.681260   2.414099   8.995825   0.087509  -0.334803   0.002051
    28  H    0.168381  -0.029630   0.087509   0.623732  -0.005740  -0.000135
    29  C    1.662581  -9.383402  -0.334803  -0.005740  12.399181   0.159189
    30  H   -0.055790   0.171756   0.002051  -0.000135   0.159189   0.522490
    31  C   -0.024374   1.517682   0.597725  -0.009291  -0.527716  -0.016302
    32  H    0.072171  -0.002066   0.213753  -0.005882  -0.000012   0.000013
    33  H   -0.006870  -0.024490   0.005805   0.000016   0.318579  -0.005156
    34  H    0.053881   0.058975  -0.031500  -0.000159  -0.042899  -0.000145
             31         32         33         34
     1  N   -0.014391   0.000599   0.000073   0.000012
     2  C    0.010360  -0.000072  -0.000016  -0.000018
     3  C   -0.098534  -0.010089  -0.000838  -0.001031
     4  C   -0.042870  -0.002032  -0.000229  -0.000742
     5  C   -0.047957   0.000302  -0.000081  -0.000079
     6  C   -0.005507  -0.000016  -0.000075  -0.000007
     7  C   -0.002656  -0.000151  -0.002241   0.000045
     8  N    0.001343   0.000000  -0.000009   0.000000
     9  O   -0.000014   0.000000   0.000000   0.000000
    10  O   -0.008368  -0.000001   0.000196   0.000007
    11  H   -0.000011   0.000000   0.000000   0.000000
    12  H    0.001469  -0.000004   0.000000   0.000000
    13  C   -0.000419   0.000002  -0.000001   0.000000
    14  C    0.000663  -0.000001   0.000001   0.000000
    15  C   -0.000526   0.000000  -0.000001   0.000000
    16  C   -0.000166   0.000000   0.000000   0.000000
    17  H   -0.000001   0.000000   0.000000   0.000000
    18  C   -0.000065   0.000000   0.000000   0.000000
    19  H    0.000000   0.000000   0.000000   0.000000
    20  C    0.000019   0.000000   0.000000   0.000000
    21  H    0.000000   0.000000   0.000000   0.000000
    22  H    0.000000   0.000000   0.000000   0.000000
    23  H    0.000000   0.000000   0.000000   0.000000
    24  C   -1.078813   0.020531   0.023651  -0.019999
    25  C   -0.024374   0.072171  -0.006870   0.053881
    26  C    1.517682  -0.002066  -0.024490   0.058975
    27  C    0.597725   0.213753   0.005805  -0.031500
    28  H   -0.009291  -0.005882   0.000016  -0.000159
    29  C   -0.527716  -0.000012   0.318579  -0.042899
    30  H   -0.016302   0.000013  -0.005156  -0.000145
    31  C    5.521531   0.018233  -0.001995   0.293483
    32  H    0.018233   0.567965  -0.000153  -0.005378
    33  H   -0.001995  -0.000153   0.559983  -0.005157
    34  H    0.293483  -0.005378  -0.005157   0.568813
 Mulliken atomic charges:
              1
     1  N   -0.367270
     2  C    0.445467
     3  C    0.424210
     4  C   -0.586482
     5  C   -0.586511
     6  C    0.424275
     7  C    0.445437
     8  N   -0.367380
     9  O   -0.525473
    10  O   -0.525496
    11  H    0.291203
    12  H    0.291189
    13  C    0.738868
    14  C   -0.418691
    15  C    0.279840
    16  C   -0.558477
    17  H    0.179087
    18  C   -0.316008
    19  H    0.093582
    20  C   -0.082639
    21  H    0.139010
    22  H    0.132277
    23  H    0.131897
    24  C    0.738925
    25  C    0.278470
    26  C   -0.417035
    27  C   -0.316264
    28  H    0.093527
    29  C   -0.559320
    30  H    0.179116
    31  C   -0.082531
    32  H    0.132289
    33  H    0.139010
    34  H    0.131898
 Sum of Mulliken atomic charges =   0.00000
 Mulliken charges with hydrogens summed into heavy atoms:
              1
     1  N   -0.076081
     2  C    0.445467
     3  C    0.424210
     4  C   -0.586482
     5  C   -0.586511
     6  C    0.424275
     7  C    0.445437
     8  N   -0.076178
     9  O   -0.525473
    10  O   -0.525496
    13  C    0.738868
    14  C   -0.239604
    15  C    0.373422
    16  C   -0.419467
    18  C   -0.183731
    20  C    0.049258
    24  C    0.738925
    25  C    0.371997
    26  C   -0.237919
    27  C   -0.183974
    29  C   -0.420310
    31  C    0.049367
 Sum of Mulliken charges with hydrogens summed into heavy atoms =   0.00000
 Electronic spatial extent (au):  <R**2>=           8316.6147
 Charge=              0.0000 electrons
 Dipole moment (field-independent basis, Debye):
    X=             -0.0010    Y=             -0.0001    Z=              0.0002  Tot=              0.0010
 Quadrupole moment (field-independent basis, Debye-Ang):
   XX=            -93.5709   YY=           -130.3577   ZZ=           -133.4265
   XY=             14.3486   XZ=              0.0097   YZ=              0.0015
 Traceless Quadrupole moment (field-independent basis, Debye-Ang):
   XX=             25.5475   YY=            -11.2393   ZZ=            -14.3082
   XY=             14.3486   XZ=              0.0097   YZ=              0.0015
 Octapole moment (field-independent basis, Debye-Ang**2):
  XXX=             -0.0477  YYY=              0.0007  ZZZ=             -0.0024  XYY=              0.0102
  XXY=             -0.0261  XXZ=             -0.0038  XZZ=             -0.0009  YZZ=              0.0014
  YYZ=              0.0054  XYZ=             -0.0429
 Hexadecapole moment (field-independent basis, Debye-Ang**3):
 XXXX=          -8298.2279 YYYY=          -1807.5547 ZZZZ=           -154.6042 XXXY=            -19.9842
 XXXZ=              0.2537 YYYX=            144.2797 YYYZ=              0.0267 ZZZX=             -0.0505
 ZZZY=              0.0123 XXYY=          -1701.5875 XXZZ=          -1855.2263 YYZZ=           -322.9109
 XXYZ=             -0.0075 YYXZ=              0.0271 ZZXY=             -6.6943
 N-N= 1.588572862047D+03 E-N=-5.390345679056D+03  KE= 9.439729937031D+02
 Calling FoFJK, ICntrl=      2127 FMM=F ISym2X=0 I1Cent= 0 IOpClX= 0 NMat=1 NMatS=1 NMatT=0.
 ***** Axes restored to original set *****
 -------------------------------------------------------------------
 Center     Atomic                   Forces (Hartrees/Bohr)
 Number     Number              X              Y              Z
 -------------------------------------------------------------------
      1        7           0.001462427    0.009659791   -0.000007730
      2        6          -0.008507199   -0.008019509    0.000017694
      3        6          -0.005978781   -0.055515818   -0.000010863
      4        6          -0.003054795    0.009440094   -0.000010792
      5        6           0.003053776   -0.009440070   -0.000010677
      6        6           0.005978488    0.055517111    0.000011064
      7        6           0.008506842    0.008015725    0.000050217
      8        7          -0.001459293   -0.009656292   -0.000011589
      9        8           0.005894026    0.002585188   -0.000003331
     10        8          -0.005890632   -0.002590173   -0.000015107
     11        1           0.000781167   -0.002027239   -0.000005128
     12        1          -0.000781841    0.002031166    0.000006163
     13        6          -0.010557971   -0.046085809   -0.000023498
     14        6           0.017220610   -0.004310338    0.000128824
     15        6          -0.012392810    0.002422439   -0.000055574
     16        6           0.008018600    0.001792049   -0.000051520
     17        1          -0.006942782    0.005507262   -0.000049757
     18        6          -0.010866660    0.005173157    0.000016871
     19        1           0.007866172    0.006408450    0.000004193
     20        6           0.002823073    0.011917673    0.000038240
     21        1          -0.008437522   -0.003874118   -0.000007840
     22        1           0.006622852   -0.006208361    0.000011511
     23        1          -0.001986720   -0.008620560   -0.000021422
     24        6           0.010780402    0.046046005    0.000016162
     25        6           0.012378767   -0.002075125   -0.000115941
     26        6          -0.017356198    0.003984780    0.000057613
     27        6           0.010421447   -0.005436804    0.000049782
     28        1          -0.007881166   -0.006452618    0.000038316
     29        6          -0.008342848   -0.001383145   -0.000016723
     30        1           0.006944903   -0.005458977   -0.000007507
     31        6          -0.002149757   -0.012043575   -0.000036857
     32        1          -0.006572044    0.006199720    0.000006925
     33        1           0.008488952    0.003863872   -0.000011591
     34        1           0.001916512    0.008634047    0.000019873
 -------------------------------------------------------------------
 Cartesian Forces:  Max     0.055517111 RMS     0.011710868

 GradGradGradGradGradGradGradGradGradGradGradGradGradGradGradGradGradGrad
 Berny optimization.
 Internal  Forces:  Max     0.036858975 RMS     0.005055397
 Search for a local minimum.
 Step number   1 out of a maximum of  199
 All quantities printed in internal units (Hartrees-Bohrs-Radians)
 Mixed Optimization -- RFO/linear search
 Second derivative matrix not updated -- first step.
 ITU=  0
 DSYEVD returned Info=         193 IAlg= 4 N=    96 NDim=    96 NE2=      345965 trying DSYEV.
     Eigenvalues ---    0.00237   0.00237   0.01254   0.01254   0.01383
     Eigenvalues ---    0.01418   0.01441   0.01565   0.01565   0.01611
     Eigenvalues ---    0.01632   0.01746   0.01819   0.01962   0.02152
     Eigenvalues ---    0.02152   0.02153   0.02153   0.02154   0.02154
     Eigenvalues ---    0.02155   0.02155   0.02155   0.02155   0.02155
     Eigenvalues ---    0.02155   0.02156   0.02156   0.02157   0.02157
     Eigenvalues ---    0.02248   0.16000   0.16000   0.16000   0.16000
     Eigenvalues ---    0.16000   0.16000   0.16000   0.16000   0.16000
     Eigenvalues ---    0.16000   0.16000   0.16000   0.22000   0.22000
     Eigenvalues ---    0.22000   0.22000   0.23486   0.23486   0.23721
     Eigenvalues ---    0.23795   0.25000   0.25000   0.25000   0.25000
     Eigenvalues ---    0.25000   0.25000   0.25000   0.25000   0.28519
     Eigenvalues ---    0.28519   0.33709   0.33709   0.33718   0.33718
     Eigenvalues ---    0.33718   0.33718   0.33720   0.33720   0.33726
     Eigenvalues ---    0.33726   0.33729   0.35118   0.35713   0.38861
     Eigenvalues ---    0.39884   0.42121   0.42121   0.42300   0.42300
     Eigenvalues ---    0.46002   0.46002   0.46412   0.46412   0.46453
     Eigenvalues ---    0.46453   0.46466   0.46466   0.46497   0.46497
     Eigenvalues ---    0.46718   0.47069   0.49710   0.49956   0.95267
     Eigenvalues ---    0.95268
 RFO step:  Lambda=-1.48653395D-02 EMin= 2.36824136D-03
 Linear search not attempted -- first point.
 Iteration  1 RMS(Cart)=  0.03559765 RMS(Int)=  0.00022169
 Iteration  2 RMS(Cart)=  0.00033216 RMS(Int)=  0.00001713
 Iteration  3 RMS(Cart)=  0.00000008 RMS(Int)=  0.00001713
 Variable       Old X    -DE/DX   Delta X   Delta X   Delta X     New X
                                 (Linear)    (Quad)   (Total)
    R1        2.70907  -0.00429   0.00000  -0.01163  -0.01161   2.69745
    R2        2.60899   0.00324   0.00000   0.00677   0.00682   2.61581
    R3        1.90829  -0.00178   0.00000  -0.00374  -0.00374   1.90455
    R4        2.76426  -0.00226   0.00000  -0.00738  -0.00742   2.75684
    R5        2.30596   0.00637   0.00000   0.00658   0.00658   2.31254
    R6        2.58160   0.01163   0.00000   0.02323   0.02325   2.60485
    R7        2.91018  -0.03686   0.00000  -0.12284  -0.12284   2.78734
    R8        2.72823  -0.00021   0.00000   0.00090   0.00082   2.72906
    R9        2.76426  -0.00227   0.00000  -0.00741  -0.00745   2.75681
   R10        2.58160   0.01164   0.00000   0.02326   0.02327   2.60488
   R11        2.60899   0.00324   0.00000   0.00677   0.00682   2.61581
   R12        2.91018  -0.03686   0.00000  -0.12284  -0.12284   2.78734
   R13        2.70907  -0.00429   0.00000  -0.01164  -0.01162   2.69745
   R14        2.30596   0.00637   0.00000   0.00658   0.00658   2.31254
   R15        1.90829  -0.00177   0.00000  -0.00374  -0.00374   1.90455
   R16        2.63647   0.00818   0.00000   0.01766   0.01767   2.65414
   R17        2.63584   0.01012   0.00000   0.02166   0.02167   2.65751
   R18        2.63562   0.00021   0.00000   0.00045   0.00046   2.63608
   R19        2.07805  -0.00886   0.00000  -0.02516  -0.02516   2.05288
   R20        2.63643  -0.00074   0.00000  -0.00155  -0.00156   2.63487
   R21        2.07795  -0.00955   0.00000  -0.02712  -0.02712   2.05083
   R22        2.63697   0.00314   0.00000   0.00598   0.00598   2.64296
   R23        2.07809  -0.00925   0.00000  -0.02628  -0.02628   2.05182
   R24        2.63584   0.00268   0.00000   0.00501   0.00500   2.64084
   R25        2.07825  -0.00907   0.00000  -0.02576  -0.02576   2.05249
   R26        2.07809  -0.00884   0.00000  -0.02511  -0.02511   2.05299
   R27        2.63647   0.00997   0.00000   0.02139   0.02139   2.65786
   R28        2.63584   0.00832   0.00000   0.01794   0.01795   2.65379
   R29        2.63562  -0.00053   0.00000  -0.00112  -0.00113   2.63450
   R30        2.07805  -0.00958   0.00000  -0.02721  -0.02721   2.05084
   R31        2.63643   0.00000   0.00000   0.00002   0.00003   2.63646
   R32        2.07795  -0.00883   0.00000  -0.02507  -0.02507   2.05288
   R33        2.63697   0.00235   0.00000   0.00432   0.00432   2.64129
   R34        2.07809  -0.00902   0.00000  -0.02562  -0.02562   2.05247
   R35        2.63584   0.00347   0.00000   0.00667   0.00667   2.64250
   R36        2.07825  -0.00930   0.00000  -0.02641  -0.02641   2.05184
   R37        2.07809  -0.00884   0.00000  -0.02511  -0.02511   2.05299
    A1        1.96177   0.00347   0.00000   0.01308   0.01313   1.97490
    A2        2.12610  -0.00294   0.00000  -0.01341  -0.01343   2.11267
    A3        2.19531  -0.00053   0.00000   0.00033   0.00031   2.19562
    A4        1.78463   0.00328   0.00000   0.00794   0.00790   1.79253
    A5        2.16400  -0.00273   0.00000  -0.00807  -0.00805   2.15595
    A6        2.33456  -0.00055   0.00000   0.00013   0.00015   2.33471
    A7        1.89449  -0.00764   0.00000  -0.02565  -0.02560   1.86889
    A8        2.11290   0.00582   0.00000   0.02038   0.02036   2.13326
    A9        2.27580   0.00182   0.00000   0.00527   0.00524   2.28104
   A10        1.88691   0.00276   0.00000   0.01455   0.01456   1.90148
   A11        2.49930  -0.00090   0.00000  -0.00467  -0.00461   2.49469
   A12        1.89697  -0.00186   0.00000  -0.00988  -0.00996   1.88702
   A13        1.89697  -0.00187   0.00000  -0.00992  -0.00999   1.88699
   A14        2.49930  -0.00088   0.00000  -0.00461  -0.00454   2.49475
   A15        1.88691   0.00276   0.00000   0.01452   0.01453   1.90145
   A16        1.89449  -0.00764   0.00000  -0.02565  -0.02560   1.86889
   A17        2.27580   0.00185   0.00000   0.00538   0.00536   2.28115
   A18        2.11290   0.00579   0.00000   0.02027   0.02024   2.13314
   A19        1.78463   0.00328   0.00000   0.00792   0.00789   1.79252
   A20        2.33456  -0.00056   0.00000   0.00011   0.00013   2.33469
   A21        2.16400  -0.00272   0.00000  -0.00804  -0.00802   2.15598
   A22        1.96177   0.00347   0.00000   0.01309   0.01313   1.97491
   A23        2.19531  -0.00054   0.00000   0.00031   0.00029   2.19560
   A24        2.12610  -0.00293   0.00000  -0.01340  -0.01342   2.11268
   A25        2.09435  -0.00363   0.00000  -0.01469  -0.01470   2.07965
   A26        2.09447   0.00608   0.00000   0.02197   0.02196   2.11643
   A27        2.09437  -0.00245   0.00000  -0.00727  -0.00726   2.08710
   A28        2.09455  -0.00112   0.00000  -0.00367  -0.00366   2.09089
[...]
 03425638,-0.00000177,-0.00702302,0.01886865,0.00000104,-0.13787764,-0.
 07071977,0.00000439,-0.05164850,0.00137046,0.00000541,0.00046984,0.000
 45960,-0.00000008,0.73490805,-0.00089590,-0.00285285,0.00000015,-0.001
 08662,0.00217697,-0.00000022,-0.00186269,0.01006214,0.00000048,0.00007
 548,-0.00054450,-0.00000107,0.00067991,0.00036051,-0.00000004,0.000164
 26,-0.00024755,0.00000052,0.00275988,0.00072170,0.00000028,0.00016185,
 -0.00022475,-0.00000025,0.00029550,-0.00041760,0.00000013,-0.00044037,
 -0.00218312,0.00000054,0.00000931,0.00004598,-0.00000010,0.00024535,-0
 .00011549,-0.00000021,0.00000753,0.00024733,0.00000035,-0.00009774,-0.
 00005731,-0.00000053,0.00010242,-0.00006970,-0.00000062,-0.00003377,0.
 00005539,0.00000058,-0.00003298,0.00004536,0.00000004,0.00005793,0.000
 03603,0.00000029,-0.00000609,-0.00000459,0.00000007,0.00000091,0.00001
 013,-0.00000028,0.00000395,0.00000887,0.,-0.00000313,0.00000727,0.0000
 0010,0.00000134,0.00000201,0.00000002,-0.07508476,-0.01186542,0.000005
 47,0.01718731,-0.05707925,-0.00000402,-0.00923309,-0.33844846,-0.00001
 152,0.04486235,0.05992014,-0.00000187,0.00042583,-0.00084491,0.0000000
 1,0.02449175,0.67572091,-0.00000034,0.00000043,-0.00002304,0.00000099,
 0.00000010,-0.00025409,0.00000084,0.00000069,0.00625357,0.00000035,-0.
 00000102,0.00007040,-0.00000010,-0.00000057,-0.00023061,-0.00000024,0.
 00000038,0.00007125,0.00000039,-0.00000003,0.00006078,-0.00000013,0.00
 000015,-0.00038875,-0.00000018,0.00000005,0.00000218,0.00000009,0.,0.0
 0016063,-0.00000010,0.00000011,-0.00003044,-0.00000007,0.00000009,-0.0
 0001654,0.00000002,-0.00000019,-0.00008061,0.00000020,-0.00000004,0.00
 028060,-0.00000021,0.00000008,0.00009987,-0.00000002,0.00000011,-0.000
 16740,0.00000002,-0.00000004,0.00001955,-0.00000031,-0.00000026,-0.000
 05986,0.00000009,0.00000003,-0.00000154,0.00000019,0.00000003,0.000069
 65,-0.00000011,-0.00000003,0.00000353,0.00000002,0.00000003,-0.0000021
 9,0.00000001,0.00000002,0.00000121,-0.00000393,0.00000252,0.00690559,0
 .00000061,-0.00000398,-0.00579651,0.00000705,-0.00000586,-0.06285254,0
 .00000718,0.00000206,0.00710314,0.00000002,-0.00000001,-0.00081058,-0.
 00005617,0.00002256,0.13408990,0.00010156,-0.00007758,-0.00000007,0.00
 020371,0.00013239,-0.00000002,0.00090577,0.00027296,-0.00000015,-0.001
 30879,-0.00040435,-0.00000016,-0.00051547,0.00032558,-0.00000005,0.000
 89819,0.00004871,0.00000012,0.00406066,0.00091893,0.00000034,-0.000976
 98,-0.00155760,-0.00000009,-0.00014108,-0.00011476,0.00000001,-0.00456
 268,0.00080576,0.00000019,0.00003018,0.00004632,-0.00000003,0.00006484
 ,0.00009760,0.,-0.00012247,-0.00006777,0.00000010,0.00001429,0.0000278
 7,-0.00000006,0.00003363,0.00000801,-0.00000012,-0.00002255,-0.0000329
 0,0.00000009,-0.00001683,0.00001697,0.,0.00002706,0.00001764,0.0000000
 4,-0.00001456,0.00000403,0.,-0.00002162,0.00004402,-0.00000012,0.00000
 308,0.00000104,0.,-0.00000170,0.00000655,0.00000003,-0.00000074,0.0000
 0076,0.,-0.01684567,0.01894313,0.00000273,-0.00337209,-0.00334376,0.00
 000077,-0.22462931,0.13854658,0.00002676,0.00024642,-0.00057024,-0.000
 00016,-0.00075179,0.00091339,0.00000018,0.01153117,-0.00755831,-0.0000
 0083,0.23380690,0.00106047,0.00046575,0.00000008,-0.00041794,-0.000444
 51,0.00000010,-0.00207997,0.00222345,0.00000001,0.00220739,-0.00126791
 ,0.00000020,0.00077649,-0.00088463,-0.00000017,-0.00145113,-0.00007254
 ,-0.00000006,-0.00682424,-0.00787488,-0.00000020,0.00128158,0.00294042
 ,0.00000026,0.00058756,0.00038422,0.00000006,0.00411338,0.00157046,-0.
 00000042,-0.00001366,-0.00009855,0.,-0.00000217,0.00025134,0.00000002,
 0.00016088,0.00007466,-0.00000016,-0.00001974,-0.00001386,0.00000012,-
 0.00003465,0.00001241,0.00000022,0.00001042,0.00004513,-0.00000017,0.0
 0001690,-0.00005753,0.,-0.00001096,-0.00001910,-0.00000011,0.00003142,
 -0.00002388,0.,0.00002741,-0.00002282,0.00000012,0.00000459,0.00000516
 ,0.00000001,-0.00000357,0.00000412,-0.00000002,0.00000347,0.00000884,0
 .,-0.01095876,0.01258013,0.00000182,-0.00333486,-0.00056974,0.00000005
 ,0.14001192,-0.18205825,-0.00002306,-0.00123305,-0.00045262,0.00000019
 ,-0.00096565,0.00063776,0.00000006,0.02249388,-0.01389763,-0.00000323,
 -0.14457900,0.19064413,-0.00000021,-0.00000022,-0.00002447,-0.00000006
 ,0.00000009,0.00006401,-0.00000016,0.00000027,-0.00307164,-0.00000042,
 0.00000037,-0.00045683,-0.00000008,0.00000009,-0.00023515,0.00000008,-
 0.00000002,0.00016638,0.00000147,0.00000118,0.00070082,-0.00000031,-0.
 00000056,0.00050540,-0.00000007,-0.00000010,0.00002438,-0.00000028,-0.
 00000121,-0.00199961,0.00000004,0.00000004,0.00005217,-0.00000002,-0.0
 0000002,0.00002821,0.00000006,-0.00000007,-0.00012030,-0.00000028,0.00
 000014,-0.00001808,0.00000004,0.00000005,0.00002068,0.00000015,-0.0000
 0007,0.00001946,0.00000001,0.,-0.00000282,0.00000008,-0.00000006,-0.00
 001030,0.,0.00000003,0.00000464,-0.00000008,0.,-0.00000022,0.,0.000000
 01,0.00000258,-0.00000003,-0.00000005,0.00000253,-0.00000003,0.,-0.000
 00062,0.00000143,-0.00000196,0.00352730,0.00000088,0.00000011,0.006219
 37,0.00002641,-0.00002236,-0.04128571,-0.00000007,0.00000003,-0.000929
 10,0.00000010,-0.00000012,0.00054024,0.00000086,-0.00000013,0.00480582
 ,-0.00002944,0.00002460,0.02934556,0.00019496,-0.00129219,-0.00000007,
 -0.00044396,0.00094873,0.00000021,-0.00211665,-0.00042605,-0.00000026,
 -0.00127760,0.00218729,0.00000015,0.00003226,-0.00093078,0.00000021,-0
 .00054744,0.00055612,-0.00000015,0.00328532,0.00071366,0.00000002,0.00
 042401,-0.00000921,-0.00000006,0.00013940,-0.00021769,-0.00000020,-0.0
 0097008,-0.00207699,-0.00000002,0.00001412,0.00004514,0.00000006,0.000
 20301,-0.00004967,0.00000002,-0.00002485,-0.00009822,0.00000017,-0.000
 01198,0.00003435,-0.00000005,0.00003815,0.00005015,-0.00000007,-0.0000
 3012,0.00000039,0.00000009,-0.00002167,0.00002752,-0.00000005,0.000034
 29,-0.00001489,0.00000010,-0.00000318,-0.00000746,-0.00000004,0.000011
 93,0.00006739,0.,0.00000918,0.00000736,-0.00000001,-0.00000626,0.00001
 056,-0.00000006,0.00000169,0.00000542,-0.00000002,-0.05861475,0.013402
 00,0.00000553,0.00849671,-0.08309255,-0.00000369,0.04977125,0.05878832
 ,-0.00000175,-0.31295867,-0.02943141,0.00002087,0.00179719,0.00001629,
 0.00000058,-0.24618993,0.06852065,0.00002047,0.00010183,-0.00193481,0.
 00000051,0.66343600,0.00034327,0.00099572,-0.00000005,0.00094175,-0.00
 086779,-0.00000009,0.00040002,-0.00297389,-0.00000017,0.00079769,0.000
 68580,0.00000033,-0.00023400,-0.00124626,0.00000014,-0.00085727,0.0004
 3838,-0.00000027,-0.00184644,-0.00012142,0.00000014,0.00003903,0.00040
 273,-0.00000002,-0.00035722,0.00019395,-0.00000022,0.00129740,0.000576
 08,-0.00000019,-0.00003556,0.00001539,0.00000010,0.00009937,0.00014664
 ,0.00000016,-0.00001784,-0.00020326,0.00000024,0.00011895,-0.00005400,
 -0.00000009,-0.00014887,0.00011326,-0.00000018,0.00006047,0.00001015,0
 .00000019,0.00004398,-0.00002280,-0.00000005,-0.00015326,-0.00010348,0
 .00000016,0.00000516,0.00002340,-0.00000004,0.00006746,-0.00010158,0.,
 -0.00002058,-0.00001784,-0.00000002,0.00001237,-0.00002343,-0.00000007
 ,-0.00000120,-0.00001562,-0.00000002,0.01098815,0.00075235,-0.00000077
 ,-0.03643204,-0.00601570,0.00000260,0.01554774,-0.04502997,-0.00000398
 ,-0.09478671,-0.14982278,0.00000472,-0.00123673,-0.00590038,-0.0000005
 2,0.13345844,-0.21811536,-0.00001946,-0.00247490,-0.00464051,-0.000000
 39,0.01572315,0.73934483,-0.00000021,-0.00000020,-0.00008641,0.0000005
 6,0.00000018,0.00003927,0.00000053,-0.00000002,-0.00085649,-0.00000016
 ,0.00000020,-0.00011307,-0.00000030,0.00000037,0.00024867,0.00000021,-
 0.00000017,-0.00000168,0.00000009,0.00000028,0.00002864,-0.00000019,-0
 .00000032,0.00001120,-0.00000035,-0.00000011,-0.00001116,-0.00000006,0
 .00000001,-0.00006709,0.00000005,0.00000003,-0.00000666,-0.00000004,0.
 00000007,0.00008453,0.00000018,-0.00000033,0.00009163,-0.00000012,0.00
 000025,-0.00015182,-0.00000016,-0.00000006,-0.00006550,0.00000002,0.00
 000011,0.00006957,0.00000003,-0.00000007,-0.00000025,0.00000007,-0.000
 00008,0.00003474,0.00000007,0.00000002,-0.00000145,-0.00000003,-0.0000
 0001,-0.00002968,0.,-0.00000002,-0.00000070,-0.00000006,-0.00000001,0.
 00000012,0.,0.00000002,-0.00000089,0.00000517,-0.00000096,-0.00704758,
 -0.00000179,0.00000678,0.00711451,-0.00000317,-0.00000793,0.00689080,0
 .00001810,-0.00000135,-0.06222640,0.00000038,-0.00000061,0.00741450,0.
 00002310,-0.00001290,-0.06237239,0.00000062,-0.00000044,0.00759826,-0.
 00004742,0.00002576,0.13452863,0.00003280,0.00011791,-0.00000001,-0.00
 004021,-0.00007617,0.00000019,0.00034548,-0.00038166,-0.00000025,-0.00
 010733,-0.00007801,0.00000022,-0.00000707,0.00005988,0.00000036,0.0000
 3315,-0.00003579,-0.00000030,0.00000198,-0.00007824,-0.00000007,0.0000
 0905,0.00002225,0.00000009,0.00003983,0.00003119,-0.00000016,-0.000025
 59,0.00005977,-0.00000014,0.00000440,-0.00000710,0.00000005,-0.0000173
 1,-0.00003944,0.00000007,0.00000375,0.00000460,0.00000004,-0.00000826,
 0.00000985,0.00000019,0.00000912,-0.00000721,0.00000016,-0.00000558,-0
 .00000324,-0.00000022,-0.00000177,-0.00000351,-0.00000002,0.00001579,0
 .00000856,-0.00000010,0.00000097,-0.00000364,-0.00000004,-0.00000659,0
 .00001238,-0.00000003,0.00000280,0.00000160,0.,-0.00000209,0.00000264,
 -0.00000002,0.00000025,0.00000280,-0.00000002,0.00098910,-0.00195771,0
 .00000046,0.00829491,-0.00631262,-0.00000070,-0.00019377,-0.00094382,-
 0.00000037,-0.22027910,0.13922107,0.00002195,0.00097553,0.00028180,-0.
 00000042,-0.00437372,-0.00355058,0.00000096,0.00006693,0.00006404,-0.0
 0000011,-0.01704854,0.02184455,0.00000267,0.23117732,-0.00002014,-0.00
 005949,0.00000003,0.00009573,0.00012606,-0.00000010,0.00163060,-0.0001
 9131,-0.00000004,-0.00015747,-0.00044619,-0.00000008,0.00015093,-0.000
 13097,-0.00000019,-0.00008313,-0.00001412,0.00000014,-0.00033408,0.000
 02638,0.00000001,0.00002435,-0.00002195,-0.00000006,-0.00013783,-0.000
 07157,0.00000007,0.00019478,0.00008120,0.00000005,-0.00000823,-0.00000
 049,-0.00000002,0.00005163,-0.00005205,-0.00000004,0.00001610,-0.00000
 173,-0.00000005,0.00001191,-0.00001867,-0.00000011,-0.00002001,0.00000
 103,-0.00000007,0.00001050,0.00000707,0.00000012,0.00000657,0.00000413
 ,0.,-0.00002271,-0.00001412,0.00000007,-0.00000178,0.00000568,0.000000
 02,0.00001073,-0.00002352,0.00000006,-0.00000492,-0.00000402,0.,0.0000
 0274,-0.00000521,0.,-0.00000017,-0.00000424,0.00000001,-0.00299314,-0.
 00456804,-0.00000020,0.02496694,-0.01569545,-0.00000307,-0.00087969,-0
 .00036955,0.00000026,0.13878776,-0.17956099,-0.00001827,-0.00013685,0.
 00101137,0.00000023,-0.00254283,0.00018362,-0.00000018,0.00009985,0.00
 004240,0.00000005,-0.00946816,0.01075141,0.00000116,-0.14914239,0.1878
 6521,-0.00000008,0.00000001,-0.00000572,0.00000016,0.00000006,0.000018
 17,0.00000004,-0.00000007,0.00062867,0.00000003,-0.00000007,-0.0002646
 7,-0.00000006,-0.00000015,-0.00008417,-0.00000002,0.00000008,0.0000101
 1,0.,-0.00000009,0.00003915,0.00000004,0.00000009,-0.00001139,-0.00000
 004,0.,-0.00001436,0.00000003,0.00000002,-0.00000234,-0.00000004,0.000
 00001,0.00000796,0.,0.,0.00003674,-0.00000007,0.00000003,0.00001605,0.
 00000015,-0.00000010,-0.00000071,-0.00000002,-0.00000002,-0.00000387,-
 0.00000005,0.00000004,-0.00000207,0.,0.,0.00000252,-0.00000007,0.,-0.0
 0000233,0.,-0.00000001,0.00000243,0.00000005,0.,0.00000007,-0.00000002
 ,0.,0.00000153,0.00000001,0.00000003,0.00000093,0.00000002,0.,0.000000
 91,0.00000070,-0.00000037,0.00735109,0.00000054,-0.00000004,0.00280500
 ,-0.00000019,0.00000010,-0.00083505,0.00002170,-0.00001831,-0.03647850
 ,-0.00000041,0.00000021,-0.00424356,0.00000083,-0.00000002,0.00690542,
 -0.00000008,0.00000001,-0.00104779,0.00000142,-0.00000155,0.00320242,-
 0.00002424,0.00001998,0.02561909,0.00002679,-0.00012233,0.,0.00001408,
 0.00009977,-0.00000012,-0.00019287,0.00035712,0.00000009,0.00015579,-0
 .00013293,-0.00000005,0.00007628,-0.00009360,0.00000006,-0.00008191,0.
 00001693,-0.00000001,-0.00023466,0.00001124,0.00000012,0.00000815,0.00
 000568,-0.00000005,-0.00004528,-0.00004541,-0.00000006,0.00018159,-0.0
 0000978,-0.00000005,-0.00000907,0.00000479,0.00000003,0.00001287,0.000
 02120,0.00000003,0.00000139,-0.00000045,0.00000015,0.00001030,-0.00001
 617,-0.00000014,-0.00001619,0.00000532,-0.00000018,0.00000991,0.000003
 99,0.00000019,0.00000309,0.00000458,-0.00000002,-0.00002163,-0.0000121
 2,0.00000013,0.00000007,0.00000526,0.,0.00000939,-0.00002057,-0.000000
 04,-0.00000401,-0.00000217,0.,0.00000291,-0.00000490,-0.00000002,-0.00
 000035,-0.00000373,0.,0.00177973,-0.00058084,0.00000045,0.00049292,0.0
 0058010,-0.00000013,-0.00151228,-0.00014095,0.00000054,-0.00156847,0.0
 0413835,0.00000099,-0.00004994,-0.00006293,-0.00000011,-0.31277623,-0.
 08431433,0.00002263,0.00070651,-0.00000244,-0.00000052,-0.01719966,-0.
 01003539,0.00000157,-0.00092705,-0.00054295,0.00000007,0.33023635,0.00
 008869,-0.00064690,0.,-0.00019069,0.00020400,0.,-0.00168453,0.00046799
 ,0.00000016,0.00024471,-0.00017062,-0.00000006,0.00017818,-0.00013185,
 -0.00000011,-0.00018029,0.00000535,0.00000006,-0.00061414,-0.00022356,
 -0.00000004,0.00013272,0.00015572,0.00000001,-0.00001510,-0.00011021,0
 .00000005,0.00047731,0.00027060,0.00000007,-0.00001133,-0.00000885,-0.
 00000002,0.00002031,-0.00000291,-0.00000002,0.00001877,0.00000792,-0.0
 0000005,0.00000323,-0.00001309,0.,-0.00001563,0.00000124,0.00000003,0.
 00000949,0.00000880,-0.00000001,0.00000105,0.00000517,0.,-0.00001402,-
 0.00000940,-0.00000002,0.00000313,0.00000259,0.,0.00000750,-0.00001784
 ,0.,-0.00000221,-0.00000148,0.,0.00000169,-0.00000407,0.00000001,0.000
 00021,-0.00000203,0.,-0.00002521,-0.00547179,-0.00000053,0.00055747,-0
 .00106442,-0.00000007,-0.03067077,-0.00581790,0.00000256,0.00331012,-0
 .00255378,-0.00000072,-0.00008313,0.00012111,0.00000007,-0.08420577,-0
 .08745782,0.00000568,0.00010965,0.00113961,0.00000025,0.02124306,0.010
 81951,-0.00000173,0.00111641,0.00038937,-0.00000008,0.09071944,0.08923
 399,-0.00000003,0.00000002,-0.00026739,0.,0.00000006,-0.00010144,-0.00
 000002,-0.00000008,0.00049041,0.,0.00000010,0.00001068,-0.00000005,0.,
 0.00002603,0.00000012,0.,0.00000636,-0.00000014,-0.00000017,0.00001938
 ,0.00000007,0.00000007,-0.00002194,0.,0.00000001,0.00002887,-0.0000000
 2,0.00000005,-0.00002661,-0.00000004,-0.00000002,0.00001286,0.,-0.0000
 0003,0.00001989,-0.00000020,0.00000013,0.00000614,0.00000034,-0.000000
 21,-0.00001481,0.00000004,-0.00000010,-0.00000436,-0.00000013,0.000000
 09,0.00000367,-0.00000002,0.00000002,0.00000256,-0.00000007,0.00000011
 ,-0.00000140,-0.00000001,-0.00000004,0.00000281,0.00000005,0.00000001,
 -0.00000078,0.,-0.00000001,0.00000130,0.00000003,0.00000005,0.00000154
 ,0.00000003,0.,0.00000086,0.00000062,-0.00000081,0.00758204,-0.0000002
 1,-0.00000019,-0.00062173,-0.00000078,0.00000001,0.00324818,0.00000095
 ,-0.00000064,0.00697218,-0.00000008,0.00000004,-0.00113669,0.00002263,
 0.00000535,-0.03779764,-0.00000048,0.00000022,-0.00432258,0.00000278,0
 .00000146,0.00332148,0.00000020,0.00000006,0.00018193,-0.00002511,-0.0
 0000576,0.02619973,0.00007271,-0.00010422,-0.00000001,0.00001935,0.000
 13106,-0.00000003,-0.00009084,-0.00002864,-0.00000007,0.00005392,-0.00
 007546,-0.00000005,0.00006799,-0.00007890,0.,-0.00005718,0.00002043,0.
 00000004,-0.00018356,-0.00016509,0.00000002,0.00006062,0.00006518,0.,0
 .00000509,-0.00002202,0.00000002,0.00003566,0.00022517,0.,0.00000173,-
 0.00000068,-0.00000001,0.00005383,0.00013533,0.00000002,0.00000657,0.0
 0000107,-0.00000002,-0.00000120,-0.00000151,-0.00000002,-0.00000229,0.
 00000123,0.,0.00000158,0.00000127,0.00000001,-0.00000070,0.00000348,0.
 ,-0.00000130,-0.00000223,0.,0.00000074,-0.00000008,0.,0.00000181,-0.00
 000124,0.,-0.00000045,0.00000023,0.,0.00000034,-0.00000022,0.,0.000000
 16,-0.00000049,0.,-0.00116961,0.00039644,0.00000006,-0.00534419,-0.001
 09789,0.00000100,-0.00357552,0.00327103,0.00000114,-0.00061623,-0.0304
 2186,-0.00000091,-0.00030680,-0.00155287,-0.00000005,0.00944925,0.0241
 4686,0.00000060,0.00050159,0.00101480,0.00000003,-0.07052594,-0.053150
 95,0.00000066,0.00104081,0.00043534,-0.00000041,0.00091148,-0.00053036
 ,-0.00000048,0.06959060,-0.00005653,-0.00016134,0.,0.00003716,0.000181
 14,-0.00000009,-0.00001796,0.00015165,0.00000005,0.00004642,-0.0000535
 2,-0.00000002,0.00005635,-0.00002637,0.00000012,0.00000389,0.00002396,
 -0.00000003,0.00007287,0.00022059,0.00000010,-0.00001992,-0.00010465,-
 0.00000005,-0.00007404,-0.00007595,-0.00000003,0.00004831,-0.00025584,
 -0.00000002,-0.00000891,0.00000819,0.00000002,0.00003639,0.00004038,0.
 00000002,-0.00000310,0.00000034,0.00000004,0.00000759,-0.00001187,-0.0
 0000003,-0.00000996,0.00000151,-0.00000007,0.00000896,0.00000209,0.000
 00004,0.00000078,0.00000884,0.,-0.00001614,-0.00000792,0.00000004,-0.0
 0000199,0.00000551,0.,0.00000530,-0.00001562,0.,-0.00000364,-0.0000019
 7,0.,0.00000271,-0.00000418,-0.00000001,-0.00000046,-0.00000392,0.,0.0
 0041283,0.00060508,-0.00000008,-0.00183814,0.00147704,-0.00000014,0.00
 400468,-0.00080199,-0.00000060,0.00077148,-0.00559966,-0.00000047,0.00
 007853,-0.00038671,-0.00000002,-0.00695518,-0.01517809,-0.00000021,-0.
 00060663,-0.00063100,0.,-0.05329747,-0.32999358,-0.00000791,-0.0002401
 9,0.00075873,0.00000021,0.00017018,0.00087554,0.00000021,0.05738583,0.
 34895359,-0.00000004,0.00000005,0.00001927,0.,0.00000002,-0.00002204,-
 0.00000017,0.00000003,-0.00103602,0.00000007,0.00000001,-0.00001835,-0
 .00000002,-0.00000015,0.00000318,-0.00000002,0.00000008,0.00001655,-0.
 00000001,-0.00000011,0.00001732,0.00000007,0.00000012,0.00008191,0.000
 00003,0.00000002,-0.00000682,0.00000007,-0.00000007,-0.00006272,-0.000
 00004,0.,0.00000879,0.,-0.00000005,0.00007674,-0.00000013,0.00000011,-
 0.00003194,0.00000021,-0.00000016,0.00000675,0.00000003,-0.00000004,-0
 .00000365,-0.00000008,0.00000004,0.00000132,-0.00000001,0.00000002,-0.
 00000064,-0.00000008,0.00000005,0.00000251,-0.00000001,-0.00000002,0.0
 0000062,0.00000005,0.,-0.00000094,-0.00000001,0.,0.00000085,0.00000003
 ,0.00000003,0.00000090,0.00000002,0.,-0.00000016,0.00000023,-0.0000000
 3,-0.00083673,0.00000089,-0.00000011,0.00704598,0.00000112,-0.00000059
 ,0.00710073,0.00000038,0.00000239,0.00370734,0.00000005,0.00000012,0.0
 0005441,-0.00000082,-0.00000313,0.00398162,-0.00000010,-0.00000009,-0.
 00010259,0.00000070,-0.00000786,-0.03763973,-0.00000040,0.00000013,-0.
 00383367,-0.00000044,0.00000025,-0.00382152,-0.00000154,0.00000896,0.0
 2529072||0.00000383,0.00000233,0.00000155,0.00000168,0.00000085,-0.000
 00124,-0.00000236,-0.00000193,0.00000058,0.00000296,-0.00000026,-0.000
 00130,-0.00000283,0.00000005,-0.00000012,0.00000201,0.00000204,0.00000
 121,-0.00000198,-0.00000108,0.00000086,-0.00000356,-0.00000212,-0.0000
 0087,-0.00000076,0.00000174,0.00000031,0.00000109,-0.00000193,-0.00000
 132,-0.00000180,-0.00000230,0.00000054,0.00000174,0.00000232,-0.000000
 98,-0.00000120,-0.00000047,-0.00000021,-0.00000211,-0.00000269,-0.0000
 0024,-0.00000634,-0.00000229,-0.00000007,-0.00000289,0.00000228,0.0000
 0010,-0.00000274,0.00000182,0.00000027,-0.00000524,0.00000008,-0.00000
 001,-0.00000223,-0.00000172,0.00000002,-0.00000477,-0.00000075,-0.0000
 0004,-0.00000512,0.00000214,0.,-0.00000418,-0.00000184,0.00000001,-0.0
 0000527,-0.00000005,0.00000003,0.00000170,0.00000046,-0.00000014,0.000
 00613,0.00000275,-0.00000087,0.00000184,0.00000240,-0.00000078,0.00000
 494,-0.00000050,-0.00000013,0.00000218,0.00000155,0.00000086,0.0000027
 2,-0.00000173,-0.00000006,0.00000274,-0.00000158,0.00000181,0.00000529
 ,0.00000065,0.00000009,0.00000422,0.00000190,0.00000009,0.00000514,-0.
 00000220,-0.00000004,0.00000518,0.00000008,0.00000008|||@


 "TIGER, TIGER BURNING BRIGHT
 IN THE FOREST OF THE NIGHT.
 WHAT IMMORTAL HAND OR EYE
 CAN FRAME THY FEARFUL SYMMETRYE?"
                     - WILLIAM BLAKE
 Job cpu time:  0 days  1 hours 10 minutes 39.0 seconds.
 File lengths (MBytes):  RWF=    715 Int=      0 D2E=      0 Chk=     16 Scr=      1
 Normal termination of Gaussian 09 at Wed Jul 12 11:35:09 2023.
