 Entering Link 1 = C:\G09W\l1.exe PID=      9268.
  
 Copyright (c) 1988,1990,1992,1993,1995,1998,2003,2009,2010,
            Gaussian, Inc.  All Rights Reserved.
  
 This is part of the Gaussian(R) 09 program.  It is based on
 the Gaussian(R) 03 system (copyright 2003, Gaussian, Inc.),
 the Gaussian(R) 98 system (copyright 1998, Gaussian, Inc.),
 the Gaussian(R) 94 system (copyright 1995, Gaussian, Inc.),
 the Gaussian 92(TM) system (copyright 1992, Gaussian, Inc.),
 the Gaussian 90(TM) system (copyright 1990, Gaussian, Inc.),
 the Gaussian 88(TM) system (copyright 1988, Gaussian, Inc.),
 the Gaussian 86(TM) system (copyright 1986, Carnegie Mellon
 University), and the Gaussian 82(TM) system (copyright 1983,
 Carnegie Mellon University). Gaussian is a federally registered
 trademark of Gaussian, Inc.
  
 This software contains proprietary and confidential information,
 including trade secrets, belonging to Gaussian, Inc.
  
 This software is provided under written license and may be
 used, copied, transmitted, or stored only in accord with that
 written license.
  
 The following legend is applicable only to US Government
 contracts under FAR:
  
                    RESTRICTED RIGHTS LEGEND
  
 Use, reproduction and disclosure by the US Government is
 subject to restrictions as set forth in subparagraphs (a)
 and (c) of the Commercial Computer Software - Restricted
 Rights clause in FAR 52.227-19.
  
 Gaussian, Inc.
 340 Quinnipiac St., Bldg. 40, Wallingford CT 06492
  
  
 ---------------------------------------------------------------
 Warning -- This program may not be used in any manner that
 competes with the business of Gaussian, Inc. or will provide
 assistance to any competitor of Gaussian, Inc.  The licensee
 of this program is prohibited from giving any competitor of
 Gaussian, Inc. access to this program.  By using this program,
 the user acknowledges that Gaussian, Inc. is engaged in the
 business of creating and licensing software in the field of
 computational chemistry and represents and warrants to the
 licensee that it is not a competitor of Gaussian, Inc. and that
 it will not use this program in any manner prohibited above.
 ---------------------------------------------------------------
  

 Cite this work as:
 Gaussian 09, Revision B.01,
 M. J. Frisch, G. W. Trucks, H. B. Schlegel, G. E. Scuseria, 
 M. A. Robb, J. R. Cheeseman, G. Scalmani, V. Barone, B. Mennucci, 
 G. A. Petersson, H. Nakatsuji, M. Caricato, X. Li, H. P. Hratchian, 
 A. F. Izmaylov, J. Bloino, G. Zheng, J. L. Sonnenberg, M. Hada, 
 M. Ehara, K. Toyota, R. Fukuda, J. Hasegawa, M. Ishida, T. Nakajima, 
 Y. Honda, O. Kitao, H. Nakai, T. Vreven, J. A. Montgomery, Jr., 
 J. E. Peralta, F. Ogliaro, M. Bearpark, J. J. Heyd, E. Brothers, 
 K. N. Kudin, V. N. Staroverov, T. Keith, R. Kobayashi, J. Normand, 
 K. Raghavachari, A. Rendell, J. C. Burant, S. S. Iyengar, J. Tomasi, 
 M. Cossi, N. Rega, J. M. Millam, M. Klene, J. E. Knox, J. B. Cross, 
 V. Bakken, C. Adamo, J. Jaramillo, R. Gomperts, R. E. Stratmann, 
 O. Yazyev, A. J. Austin, R. Cammi, C. Pomelli, J. W. Ochterski, 
 R. L. Martin, K. Morokuma, V. G. Zakrzewski, G. A. Voth, 
 P. Salvador, J. J. Dannenberg, S. Dapprich, A. D. Daniels, 
 O. Farkas, J. B. Foresman, J. V. Ortiz, J. Cioslowski, 
 and D. J. Fox, Gaussian, Inc., Wallingford CT, 2010.
 
 ******************************************
 Gaussian 09:  IA32W-G09RevB.01 12-Aug-2010
                13-Jul-2023 
 ******************************************
 %nprocshared=6
 Will use up to    6 processors via shared memory.
 %chk=G:\Meu Drive\POS-DOC-IME\SUBSTITUINTES-DOADORES\DPP-substituido\DPP-SUB-1-O
 PT-FREQ-CATION.chk
 ----------------------------------------------
 # opt freq b3lyp/6-31+g(d,p) geom=connectivity
 ----------------------------------------------
 1/14=-1,18=20,19=15,26=3,38=1,57=2/1,3;
 2/9=110,12=2,17=6,18=5,40=1/2;
 3/5=1,6=6,7=111,11=2,16=1,25=1,30=1,71=1,74=-5/1,2,3;
 4//1;
 5/5=2,38=5/2;
 6/7=2,8=2,9=2,10=2,28=1/1;
 7//1,2,3,16;
 1/14=-1,18=20,19=15/3(2);
 2/9=110/2;
 99//99;
 2/9=110/2;
 3/5=1,6=6,7=111,11=2,16=1,25=1,30=1,71=1,74=-5/1,2,3;
 4/5=5,16=3/1;
 5/5=2,38=5/2;
 7//1,2,3,16;
 1/14=-1,18=20,19=15/3(-5);
 2/9=110/2;
 6/7=2,8=2,9=2,10=2,19=2,28=1/1;
 99/9=1/99;
 -------------------
 Title Card Required
 -------------------
 Symbolic Z-matrix:
 Charge =  1 Multiplicity = 2
 N                     1.13958   1.7842    0.00001 
 C                    -0.27772   1.79357   0.00004 
 C                     1.68564   0.50503  -0.00004 
 C                     0.61261  -0.37423  -0.00004 
 C                    -0.61261   0.37424   0.00002 
 C                    -1.68564  -0.50503   0.00003 
 C                     0.27772  -1.79357  -0.00007 
 N                    -1.13958  -1.78419  -0.00004 
 O                    -0.94648   2.82339   0.00009 
 O                     0.94649  -2.82338  -0.00013 
 H                    -1.65766  -2.64935   0.00002 
 H                     1.65766   2.64936  -0.00002 
 C                    -3.12324  -0.26657   0.00008 
 C                    -3.61291   1.05742   0.0002 
 C                    -4.04904  -1.33073   0.00002 
 C                    -4.985     1.29774   0.00026 
 H                    -2.91401   1.88874   0.00025 
 C                    -5.41927  -1.08081   0.00007 
 H                    -3.71245  -2.36292  -0.00009 
 C                    -5.89351   0.23465   0.0002 
 H                    -5.3453    2.32207   0.00035 
 H                    -6.11675  -1.91303   0.00002 
 H                    -6.96214   0.42798   0.00024 
 C                     3.12324   0.26657  -0.00008 
 C                     4.04905   1.33072  -0.00022 
 C                     3.6129   -1.05742   0.00002 
 C                     5.41928   1.0808   -0.00025 
 H                     3.71246   2.36292  -0.00029 
 C                     4.98499  -1.29775  -0.00002 
 H                     2.914    -1.88874   0.00015 
 C                     5.89351  -0.23466  -0.00016 
 H                     6.11676   1.91301  -0.00035 
 H                     5.34529  -2.32208   0.00007 
 H                     6.96213  -0.428    -0.00018 
 

 GradGradGradGradGradGradGradGradGradGradGradGradGradGradGradGradGradGrad
 Berny optimization.
 Initialization pass.
                           ----------------------------
                           !    Initial Parameters    !
                           ! (Angstroms and Degrees)  !
 --------------------------                            --------------------------
 ! Name  Definition              Value          Derivative Info.                !
 --------------------------------------------------------------------------------
 ! R1    R(1,2)                  1.4173         estimate D2E/DX2                !
 ! R2    R(1,3)                  1.3908         estimate D2E/DX2                !
 ! R3    R(1,12)                 1.0084         estimate D2E/DX2                !
 ! R4    R(2,5)                  1.4583         estimate D2E/DX2                !
 ! R5    R(2,9)                  1.2279         estimate D2E/DX2                !
 ! R6    R(3,4)                  1.3873         estimate D2E/DX2                !
 ! R7    R(3,24)                 1.4572         estimate D2E/DX2                !
 ! R8    R(4,5)                  1.4357         estimate D2E/DX2                !
 ! R9    R(4,7)                  1.4583         estimate D2E/DX2                !
 ! R10   R(5,6)                  1.3873         estimate D2E/DX2                !
 ! R11   R(6,8)                  1.3908         estimate D2E/DX2                !
 ! R12   R(6,13)                 1.4572         estimate D2E/DX2                !
 ! R13   R(7,8)                  1.4173         estimate D2E/DX2                !
 ! R14   R(7,10)                 1.2279         estimate D2E/DX2                !
 ! R15   R(8,11)                 1.0084         estimate D2E/DX2                !
 ! R16   R(13,14)                1.4116         estimate D2E/DX2                !
 ! R17   R(13,15)                1.4105         estimate D2E/DX2                !
 ! R18   R(14,16)                1.393          estimate D2E/DX2                !
 ! R19   R(14,17)                1.0861         estimate D2E/DX2                !
 ! R20   R(15,18)                1.3928         estimate D2E/DX2                !
 ! R21   R(15,19)                1.0857         estimate D2E/DX2                !
 ! R22   R(16,20)                1.3984         estimate D2E/DX2                !
 ! R23   R(16,21)                1.0859         estimate D2E/DX2                !
 ! R24   R(18,20)                1.3983         estimate D2E/DX2                !
 ! R25   R(18,22)                1.0858         estimate D2E/DX2                !
 ! R26   R(20,23)                1.086          estimate D2E/DX2                !
 ! R27   R(24,25)                1.4105         estimate D2E/DX2                !
 ! R28   R(24,26)                1.4116         estimate D2E/DX2                !
 ! R29   R(25,27)                1.3928         estimate D2E/DX2                !
 ! R30   R(25,28)                1.0857         estimate D2E/DX2                !
 ! R31   R(26,29)                1.393          estimate D2E/DX2                !
 ! R32   R(26,30)                1.0861         estimate D2E/DX2                !
 ! R33   R(27,31)                1.3983         estimate D2E/DX2                !
 ! R34   R(27,32)                1.0858         estimate D2E/DX2                !
 ! R35   R(29,31)                1.3984         estimate D2E/DX2                !
 ! R36   R(29,33)                1.0859         estimate D2E/DX2                !
 ! R37   R(31,34)                1.086          estimate D2E/DX2                !
 ! A1    A(2,1,3)              113.4961         estimate D2E/DX2                !
 ! A2    A(2,1,12)             120.5351         estimate D2E/DX2                !
 ! A3    A(3,1,12)             125.9687         estimate D2E/DX2                !
 ! A4    A(1,2,5)              102.8969         estimate D2E/DX2                !
 ! A5    A(1,2,9)              123.3788         estimate D2E/DX2                !
 ! A6    A(5,2,9)              133.7242         estimate D2E/DX2                !
 ! A7    A(1,3,4)              106.2146         estimate D2E/DX2                !
 ! A8    A(1,3,24)             122.5352         estimate D2E/DX2                !
 ! A9    A(4,3,24)             131.2501         estimate D2E/DX2                !
 ! A10   A(3,4,5)              109.2482         estimate D2E/DX2                !
 ! A11   A(3,4,7)              142.6077         estimate D2E/DX2                !
 ! A12   A(5,4,7)              108.1441         estimate D2E/DX2                !
 ! A13   A(2,5,4)              108.1441         estimate D2E/DX2                !
 ! A14   A(2,5,6)              142.6078         estimate D2E/DX2                !
 ! A15   A(4,5,6)              109.2482         estimate D2E/DX2                !
 ! A16   A(5,6,8)              106.2146         estimate D2E/DX2                !
 ! A17   A(5,6,13)             131.2502         estimate D2E/DX2                !
 ! A18   A(8,6,13)             122.5352         estimate D2E/DX2                !
 ! A19   A(4,7,8)              102.897          estimate D2E/DX2                !
 ! A20   A(4,7,10)             133.7242         estimate D2E/DX2                !
 ! A21   A(8,7,10)             123.3789         estimate D2E/DX2                !
 ! A22   A(6,8,7)              113.4962         estimate D2E/DX2                !
 ! A23   A(6,8,11)             125.9686         estimate D2E/DX2                !
 ! A24   A(7,8,11)             120.5352         estimate D2E/DX2                !
 ! A25   A(6,13,14)            119.7145         estimate D2E/DX2                !
 ! A26   A(6,13,15)            121.6048         estimate D2E/DX2                !
 ! A27   A(14,13,15)           118.6807         estimate D2E/DX2                !
 ! A28   A(13,14,16)           120.2312         estimate D2E/DX2                !
 ! A29   A(13,14,17)           119.6496         estimate D2E/DX2                !
 ! A30   A(16,14,17)           120.1193         estimate D2E/DX2                !
 ! A31   A(13,15,18)           120.6864         estimate D2E/DX2                !
 ! A32   A(13,15,19)           120.9163         estimate D2E/DX2                !
 ! A33   A(18,15,19)           118.3973         estimate D2E/DX2                !
 ! A34   A(14,16,20)           120.5823         estimate D2E/DX2                !
 ! A35   A(14,16,21)           119.3136         estimate D2E/DX2                !
 ! A36   A(20,16,21)           120.104          estimate D2E/DX2                !
 ! A37   A(15,18,20)           120.1611         estimate D2E/DX2                !
 ! A38   A(15,18,22)           119.63           estimate D2E/DX2                !
 ! A39   A(20,18,22)           120.209          estimate D2E/DX2                !
 ! A40   A(16,20,18)           119.6584         estimate D2E/DX2                !
 ! A41   A(16,20,23)           120.2622         estimate D2E/DX2                !
 ! A42   A(18,20,23)           120.0795         estimate D2E/DX2                !
 ! A43   A(3,24,25)            121.6049         estimate D2E/DX2                !
 ! A44   A(3,24,26)            119.7143         estimate D2E/DX2                !
 ! A45   A(25,24,26)           118.6807         estimate D2E/DX2                !
 ! A46   A(24,25,27)           120.6864         estimate D2E/DX2                !
 ! A47   A(24,25,28)           120.9164         estimate D2E/DX2                !
 ! A48   A(27,25,28)           118.3972         estimate D2E/DX2                !
 ! A49   A(24,26,29)           120.2311         estimate D2E/DX2                !
 ! A50   A(24,26,30)           119.6496         estimate D2E/DX2                !
 ! A51   A(29,26,30)           120.1193         estimate D2E/DX2                !
 ! A52   A(25,27,31)           120.1611         estimate D2E/DX2                !
 ! A53   A(25,27,32)           119.6299         estimate D2E/DX2                !
 ! A54   A(31,27,32)           120.2091         estimate D2E/DX2                !
 ! A55   A(26,29,31)           120.5823         estimate D2E/DX2                !
 ! A56   A(26,29,33)           119.3137         estimate D2E/DX2                !
 ! A57   A(31,29,33)           120.104          estimate D2E/DX2                !
 ! A58   A(27,31,29)           119.6584         estimate D2E/DX2                !
 ! A59   A(27,31,34)           120.0795         estimate D2E/DX2                !
 ! A60   A(29,31,34)           120.2621         estimate D2E/DX2                !
 ! D1    D(3,1,2,5)              0.0005         estimate D2E/DX2                !
 ! D2    D(3,1,2,9)            180.0            estimate D2E/DX2                !
 ! D3    D(12,1,2,5)           179.9978         estimate D2E/DX2                !
 ! D4    D(12,1,2,9)            -0.0028         estimate D2E/DX2                !
 ! D5    D(2,1,3,4)             -0.0002         estimate D2E/DX2                !
 ! D6    D(2,1,3,24)           180.0            estimate D2E/DX2                !
 ! D7    D(12,1,3,4)          -179.9973         estimate D2E/DX2                !
 ! D8    D(12,1,3,24)            0.0029         estimate D2E/DX2                !
 ! D9    D(1,2,5,4)             -0.0007         estimate D2E/DX2                !
 ! D10   D(1,2,5,6)            179.9998         estimate D2E/DX2                !
 ! D11   D(9,2,5,4)            180.0            estimate D2E/DX2                !
 ! D12   D(9,2,5,6)              0.0005         estimate D2E/DX2                !
 ! D13   D(1,3,4,5)             -0.0003         estimate D2E/DX2                !
 ! D14   D(1,3,4,7)            179.9997         estimate D2E/DX2                !
 ! D15   D(24,3,4,5)           179.9995         estimate D2E/DX2                !
 ! D16   D(24,3,4,7)            -0.0005         estimate D2E/DX2                !
 ! D17   D(1,3,24,25)           -0.0068         estimate D2E/DX2                !
 ! D18   D(1,3,24,26)          179.9929         estimate D2E/DX2                !
 ! D19   D(4,3,24,25)          179.9934         estimate D2E/DX2                !
 ! D20   D(4,3,24,26)           -0.0069         estimate D2E/DX2                !
 ! D21   D(3,4,5,2)              0.0006         estimate D2E/DX2                !
 ! D22   D(3,4,5,6)           -179.9997         estimate D2E/DX2                !
 ! D23   D(7,4,5,2)           -179.9993         estimate D2E/DX2                !
 ! D24   D(7,4,5,6)              0.0003         estimate D2E/DX2                !
 ! D25   D(3,4,7,8)           -179.9997         estimate D2E/DX2                !
 ! D26   D(3,4,7,10)            -0.0002         estimate D2E/DX2                !
 ! D27   D(5,4,7,8)              0.0003         estimate D2E/DX2                !
 ! D28   D(5,4,7,10)           179.9997         estimate D2E/DX2                !
 ! D29   D(2,5,6,8)            179.9987         estimate D2E/DX2                !
 ! D30   D(2,5,6,13)            -0.0004         estimate D2E/DX2                !
 ! D31   D(4,5,6,8)             -0.0008         estimate D2E/DX2                !
 ! D32   D(4,5,6,13)          -179.9999         estimate D2E/DX2                !
 ! D33   D(5,6,8,7)              0.001          estimate D2E/DX2                !
 ! D34   D(5,6,8,11)           179.9954         estimate D2E/DX2                !
 ! D35   D(13,6,8,7)          -179.9998         estimate D2E/DX2                !
 ! D36   D(13,6,8,11)           -0.0054         estimate D2E/DX2                !
 ! D37   D(5,6,13,14)           -0.0033         estimate D2E/DX2                !
 ! D38   D(5,6,13,15)          179.9967         estimate D2E/DX2                !
 ! D39   D(8,6,13,14)          179.9977         estimate D2E/DX2                !
 ! D40   D(8,6,13,15)           -0.0023         estimate D2E/DX2                !
 ! D41   D(4,7,8,6)             -0.0008         estimate D2E/DX2                !
 ! D42   D(4,7,8,11)          -179.9955         estimate D2E/DX2                !
 ! D43   D(10,7,8,6)           179.9997         estimate D2E/DX2                !
 ! D44   D(10,7,8,11)            0.005          estimate D2E/DX2                !
 ! D45   D(6,13,14,16)        -179.9997         estimate D2E/DX2                !
 ! D46   D(6,13,14,17)           0.0004         estimate D2E/DX2                !
 ! D47   D(15,13,14,16)          0.0002         estimate D2E/DX2                !
 ! D48   D(15,13,14,17)       -179.9996         estimate D2E/DX2                !
 ! D49   D(6,13,15,18)         179.9997         estimate D2E/DX2                !
 ! D50   D(6,13,15,19)          -0.0007         estimate D2E/DX2                !
 ! D51   D(14,13,15,18)         -0.0002         estimate D2E/DX2                !
 ! D52   D(14,13,15,19)        179.9994         estimate D2E/DX2                !
 ! D53   D(13,14,16,20)          0.0            estimate D2E/DX2                !
 ! D54   D(13,14,16,21)        180.0            estimate D2E/DX2                !
 ! D55   D(17,14,16,20)        179.9998         estimate D2E/DX2                !
 ! D56   D(17,14,16,21)         -0.0002         estimate D2E/DX2                !
 ! D57   D(13,15,18,20)          0.0            estimate D2E/DX2                !
 ! D58   D(13,15,18,22)        179.9999         estimate D2E/DX2                !
 ! D59   D(19,15,18,20)       -179.9996         estimate D2E/DX2                !
 ! D60   D(19,15,18,22)          0.0003         estimate D2E/DX2                !
 ! D61   D(14,16,20,18)         -0.0002         estimate D2E/DX2                !
 ! D62   D(14,16,20,23)        180.0            estimate D2E/DX2                !
 ! D63   D(21,16,20,18)        179.9998         estimate D2E/DX2                !
 ! D64   D(21,16,20,23)          0.0            estimate D2E/DX2                !
 ! D65   D(15,18,20,16)          0.0002         estimate D2E/DX2                !
 ! D66   D(15,18,20,23)       -180.0            estimate D2E/DX2                !
 ! D67   D(22,18,20,16)       -179.9997         estimate D2E/DX2                !
 ! D68   D(22,18,20,23)          0.0001         estimate D2E/DX2                !
 ! D69   D(3,24,25,27)         180.0            estimate D2E/DX2                !
 ! D70   D(3,24,25,28)           0.0005         estimate D2E/DX2                !
 ! D71   D(26,24,25,27)          0.0003         estimate D2E/DX2                !
 ! D72   D(26,24,25,28)       -179.9992         estimate D2E/DX2                !
 ! D73   D(3,24,26,29)         180.0            estimate D2E/DX2                !
 ! D74   D(3,24,26,30)          -0.0008         estimate D2E/DX2                !
 ! D75   D(25,24,26,29)         -0.0004         estimate D2E/DX2                !
 ! D76   D(25,24,26,30)        179.9988         estimate D2E/DX2                !
 ! D77   D(24,25,27,31)          0.0            estimate D2E/DX2                !
 ! D78   D(24,25,27,32)       -179.9999         estimate D2E/DX2                !
 ! D79   D(28,25,27,31)        179.9995         estimate D2E/DX2                !
 ! D80   D(28,25,27,32)         -0.0004         estimate D2E/DX2                !
 ! D81   D(24,26,29,31)          0.0001         estimate D2E/DX2                !
 ! D82   D(24,26,29,33)        179.9999         estimate D2E/DX2                !
 ! D83   D(30,26,29,31)       -179.9991         estimate D2E/DX2                !
 ! D84   D(30,26,29,33)          0.0007         estimate D2E/DX2                !
 ! D85   D(25,27,31,29)         -0.0003         estimate D2E/DX2                !
 ! D86   D(25,27,31,34)       -179.9999         estimate D2E/DX2                !
 ! D87   D(32,27,31,29)        179.9996         estimate D2E/DX2                !
 ! D88   D(32,27,31,34)          0.0            estimate D2E/DX2                !
 ! D89   D(26,29,31,27)          0.0002         estimate D2E/DX2                !
 ! D90   D(26,29,31,34)        179.9999         estimate D2E/DX2                !
 ! D91   D(33,29,31,27)       -179.9996         estimate D2E/DX2                !
 ! D92   D(33,29,31,34)          0.0001         estimate D2E/DX2                !
 --------------------------------------------------------------------------------
 Trust Radius=3.00D-01 FncErr=1.00D-07 GrdErr=1.00D-06
 Number of steps in this run=    199 maximum allowed number of steps=    204.
 GradGradGradGradGradGradGradGradGradGradGradGradGradGradGradGradGradGrad

                          Input orientation:                          
 ---------------------------------------------------------------------
 Center     Atomic      Atomic             Coordinates (Angstroms)
 Number     Number       Type             X           Y           Z
 ---------------------------------------------------------------------
      1          7           0        1.139583    1.784197    0.000007
      2          6           0       -0.277719    1.793573    0.000040
      3          6           0        1.685644    0.505034   -0.000042
      4          6           0        0.612608   -0.374229   -0.000038
      5          6           0       -0.612608    0.374235    0.000021
      6          6           0       -1.685644   -0.505029    0.000032
      7          6           0        0.277720   -1.793567   -0.000073
      8          7           0       -1.139581   -1.784192   -0.000038
      9          8           0       -0.946483    2.823388    0.000085
     10          8           0        0.946486   -2.823381   -0.000129
     11          1           0       -1.657661   -2.649354    0.000017
     12          1           0        1.657663    2.649360   -0.000022
     13          6           0       -3.123243   -0.266572    0.000083
     14          6           0       -3.612910    1.057418    0.000203
     15          6           0       -4.049042   -1.330726    0.000016
     16          6           0       -4.984997    1.297741    0.000258
     17          1           0       -2.914013    1.888741    0.000250
     18          6           0       -5.419273   -1.080813    0.000072
     19          1           0       -3.712449   -2.362920   -0.000087
     20          6           0       -5.893508    0.234650    0.000195
     21          1           0       -5.345299    2.322073    0.000351
     22          1           0       -6.116751   -1.913026    0.000018
     23          1           0       -6.962138    0.427983    0.000239
     24          6           0        3.123243    0.266574   -0.000082
     25          6           0        4.049046    1.330723   -0.000216
     26          6           0        3.612903   -1.057419    0.000022
     27          6           0        5.419277    1.080803   -0.000252
     28          1           0        3.712460    2.362919   -0.000285
     29          6           0        4.984989   -1.297748   -0.000016
     30          1           0        2.914002   -1.888738    0.000145
     31          6           0        5.893505   -0.234661   -0.000155
     32          1           0        6.116758    1.913014   -0.000354
     33          1           0        5.345287   -2.322082    0.000067
     34          1           0        6.962134   -0.428000   -0.000182
 ---------------------------------------------------------------------
                    Distance matrix (angstroms):
                    1          2          3          4          5
     1  N    0.000000
     2  C    1.417333   0.000000
     3  C    1.390842   2.348431   0.000000
     4  C    2.221825   2.343512   1.387267   0.000000
     5  C    2.249037   1.458311   2.301971   1.435741   0.000000
     6  C    3.636271   2.695519   3.519348   2.301971   1.387268
     7  C    3.680109   3.629888   2.695518   1.458311   2.343512
     8  N    4.234146   3.680110   3.636269   2.249036   2.221825
     9  O    2.330577   1.227911   3.507543   3.557460   2.471806
    10  O    4.611622   4.776499   3.409502   2.471805   3.557460
    11  H    5.242227   4.652294   4.596504   3.214081   3.199098
    12  H    1.008421   2.116146   2.144509   3.199098   3.214082
    13  C    4.730469   3.513005   4.870397   3.737402   2.591124
    14  C    4.807743   3.415468   5.327270   4.461459   3.077101
    15  C    6.051824   4.897359   6.021349   4.758767   3.836140
    16  C    6.143868   4.733320   6.717577   5.841974   4.468853
    17  H    4.054944   2.638011   4.803279   4.190237   2.755031
    18  C    7.157295   5.890473   7.279750   6.073125   5.022071
    19  H    6.382852   5.392013   6.112656   4.760358   4.135339
    20  C    7.201768   5.828150   7.583973   6.534545   5.282744
    21  H    6.507150   5.095064   7.261941   6.539625   5.117855
    22  H    8.143945   6.916153   8.168499   6.903055   5.960466
    23  H    8.214451   6.822484   8.648125   7.617107   6.349757
    24  C    2.497616   3.728038   1.457242   2.591123   3.737402
    25  C    2.944591   4.351451   2.503484   3.836140   4.758770
    26  C    3.767239   4.823390   2.481045   3.077096   4.461455
    27  C    4.337112   5.741411   3.777767   5.022070   6.073127
    28  H    2.637160   4.030593   2.749494   4.135343   4.760365
    29  C    4.928035   6.103471   3.759747   4.468848   5.841971
    30  H    4.079095   4.873038   2.690540   2.755023   4.190230
    31  C    5.164839   6.495979   4.272381   5.282741   6.534544
    32  H    4.978842   6.395592   4.649428   5.960465   6.903058
    33  H    5.877880   6.968272   4.624454   5.117849   6.539621
    34  H    6.228637   7.573035   5.358349   6.349754   7.617106
                    6          7          8          9         10
     6  C    0.000000
     7  C    2.348431   0.000000
     8  N    1.390842   1.417332   0.000000
     9  O    3.409504   4.776499   4.611624   0.000000
    10  O    3.507544   1.227911   2.330577   5.955613   0.000000
    11  H    2.144508   2.116145   1.008421   5.518757   2.609955
    12  H    4.596506   4.652294   5.242228   2.609954   5.518756
    13  C    1.457241   3.728037   2.497616   3.779701   4.806242
    14  C    2.481047   4.823393   3.767241   3.198200   5.987378
    15  C    2.503483   4.351447   2.944587   5.184837   5.213762
    16  C    3.759749   6.103472   4.928036   4.317082   7.222613
    17  H    2.690544   4.873043   4.079099   2.178242   6.091596
    18  C    3.777766   5.741406   4.337108   5.937056   6.599957
    19  H    2.749490   4.030585   2.637153   5.877785   4.681634
    20  C    4.272382   6.495977   5.164837   5.583424   7.492468
    21  H    4.624455   6.968273   5.877880   4.427290   8.127869
    22  H    4.649426   6.395587   4.978837   7.011796   7.121662
    23  H    5.358349   7.573033   6.228635   6.475034   8.550889
    24  C    4.870397   3.513002   4.730466   4.806243   3.779695
    25  C    6.021350   4.897355   6.051822   5.213766   5.184830
    26  C    5.327263   3.415459   4.807734   5.987375   3.198187
    27  C    7.279750   5.890468   7.157291   6.599962   5.937046
    28  H    6.112663   5.392014   6.382855   4.681643   5.877782
    29  C    6.717570   4.733309   6.143858   7.222612   4.317066
    30  H    4.803269   2.637999   4.054931   6.091591   2.178228
    31  C    7.583970   5.828141   7.201760   7.492470   5.583410
    32  H    8.168501   6.916148   8.143942   7.121668   7.011787
    33  H    7.261933   5.095053   6.507138   8.127868   4.427274
    34  H    8.648121   6.822475   8.214441   8.550892   6.475019
                   11         12         13         14         15
    11  H    0.000000
    12  H    6.250419   0.000000
    13  C    2.797424   5.599975   0.000000
    14  C    4.190842   5.505744   1.411639   0.000000
    15  C    2.730839   6.957555   1.410506   2.427641   0.000000
    16  C    5.162434   6.778776   2.431708   1.392974   2.790135
    17  H    4.708792   4.634519   2.165445   1.086073   3.413687
    18  C    4.075542   7.999826   2.436133   2.799103   1.392835
    19  H    2.074656   7.345819   2.177576   3.421786   1.085688
    20  C    5.124439   7.927863   2.815243   2.424474   2.419185
    21  H    6.189811   7.010606   3.411542   2.144883   3.875980
    22  H    4.519476   9.014260   3.416416   3.884940   2.148137
    23  H    6.132494   8.901432   3.901221   3.407861   3.402820
    24  C    5.599971   2.797426   6.269197   6.782418   7.347996
    25  C    6.957551   2.730845   7.347998   7.666829   8.524221
    26  C    5.505734   4.190844   6.782411   7.528938   7.666818
    27  C    7.999820   4.075550   8.648125   9.032217   9.770596
    28  H    7.345821   2.074666   7.324006   7.440792   8.595576
    29  C    6.778764   5.162437   8.173540   8.914633   9.034091
    30  H    4.634505   4.708792   6.251380   7.161035   6.985368
    31  C    7.927853   5.124445   9.016804   9.593821  10.002780
    32  H    9.014255   4.519484   9.493588   9.767215  10.670770
    33  H    7.010591   6.189815   8.714420   9.574462   9.446492
    34  H    8.901420   6.132500  10.086669  10.678859  11.048118
                   16         17         18         19         20
    16  C    0.000000
    17  H    2.153661   0.000000
    18  C    2.417874   3.885174   0.000000
    19  H    3.875541   4.325982   2.134724   0.000000
    20  C    1.398411   3.407845   1.398335   3.391812   0.000000
    21  H    1.085852   2.469601   3.403690   4.961387   2.158209
    22  H    3.404393   4.971012   1.085843   2.446032   2.159247
    23  H    2.159992   4.303618   2.157985   4.283645   1.085978
    24  C    8.173546   6.251391   8.648123   7.323996   9.016808
    25  C    9.034103   6.985383   9.770597   8.595569  10.002787
    26  C    8.914632   7.161040   9.032206   7.440774   9.593815
    27  C   10.406535   8.372364  11.052002   9.759490  11.344385
    28  H    8.762440   6.643417   9.759500   8.801297   9.838910
    29  C   10.302290   8.517508  10.406523   8.762421  10.985897
    30  H    8.517502   6.945150   8.372348   6.643395   9.059857
    31  C   10.985903   9.059868  11.344378   9.838894  11.796352
    32  H   11.118792   9.030804  11.918180  10.718998  12.126970
    33  H   10.946136   9.270764  10.835889   9.057828  11.525944
    34  H   12.071128  10.144238  12.398605  10.848532  12.872709
                   21         22         23         24         25
    21  H    0.000000
    22  H    4.304788   0.000000
    23  H    2.490330   2.488976   0.000000
    24  C    8.714429   9.493584  10.086673   0.000000
    25  C    9.446507  10.670770  11.048127   1.410505   0.000000
    26  C    9.574463   9.767202  10.678853   1.411639   2.427641
    27  C   10.835906  11.918177  12.398613   2.436132   1.392836
    28  H    9.057851  10.719006  10.848549   2.177576   1.085688
    29  C   10.946139  11.118777  12.071122   2.431708   2.790134
    30  H    9.270760   9.030786  10.144227   2.165445   3.413686
    31  C   11.525954  12.126960  12.872710   2.815242   2.419185
    32  H   11.469354  12.817852  13.162934   3.416416   2.148138
    33  H   11.655763  11.469335  12.610930   3.411542   3.875981
    34  H   12.610940  13.162923  13.950558   3.901220   3.402821
                   26         27         28         29         30
    26  C    0.000000
    27  C    2.799104   0.000000
    28  H    3.421787   2.134724   0.000000
    29  C    1.392975   2.417873   3.875540   0.000000
    30  H    1.086073   3.885174   4.325982   2.153661   0.000000
    31  C    2.424474   1.398334   3.391811   1.398412   3.407845
    32  H    3.884940   1.085843   2.446030   3.404393   4.971012
    33  H    2.144884   3.403689   4.961387   1.085852   2.469602
    34  H    3.407861   2.157984   4.283644   2.159992   4.303618
                   31         32         33         34
    31  C    0.000000
    32  H    2.159248   0.000000
    33  H    2.158210   4.304789   0.000000
    34  H    1.085978   2.488977   2.490329   0.000000
 Stoichiometry    C18H12N2O2(1+,2)
 Framework group  C1[X(C18H12N2O2)]
 Deg. of freedom    96
 Full point group                 C1      NOp   1
 Largest Abelian subgroup         C1      NOp   1
 Largest concise Abelian subgroup C1      NOp   1
                         Standard orientation:                         
 ---------------------------------------------------------------------
 Center     Atomic      Atomic             Coordinates (Angstroms)
 Number     Number       Type             X           Y           Z
 ---------------------------------------------------------------------
      1          7           0        1.139583    1.784197    0.000007
      2          6           0       -0.277719    1.793573    0.000040
      3          6           0        1.685644    0.505034   -0.000042
      4          6           0        0.612608   -0.374229   -0.000038
      5          6           0       -0.612608    0.374235    0.000021
      6          6           0       -1.685644   -0.505029    0.000032
      7          6           0        0.277720   -1.793567   -0.000073
      8          7           0       -1.139581   -1.784192   -0.000038
      9          8           0       -0.946483    2.823388    0.000085
     10          8           0        0.946486   -2.823381   -0.000129
     11          1           0       -1.657661   -2.649354    0.000017
     12          1           0        1.657663    2.649360   -0.000022
     13          6           0       -3.123243   -0.266572    0.000083
     14          6           0       -3.612910    1.057418    0.000203
     15          6           0       -4.049042   -1.330726    0.000016
     16          6           0       -4.984997    1.297741    0.000258
     17          1           0       -2.914013    1.888741    0.000250
     18          6           0       -5.419273   -1.080813    0.000072
     19          1           0       -3.712449   -2.362920   -0.000087
     20          6           0       -5.893508    0.234650    0.000195
     21          1           0       -5.345299    2.322073    0.000351
     22          1           0       -6.116751   -1.913026    0.000018
     23          1           0       -6.962138    0.427983    0.000239
     24          6           0        3.123243    0.266574   -0.000082
     25          6           0        4.049046    1.330723   -0.000216
     26          6           0        3.612903   -1.057419    0.000022
     27          6           0        5.419277    1.080803   -0.000252
     28          1           0        3.712460    2.362919   -0.000285
     29          6           0        4.984989   -1.297748   -0.000016
     30          1           0        2.914002   -1.888738    0.000145
     31          6           0        5.893505   -0.234661   -0.000155
     32          1           0        6.116758    1.913014   -0.000354
     33          1           0        5.345287   -2.322082    0.000067
     34          1           0        6.962134   -0.428000   -0.000182
 ---------------------------------------------------------------------
 Rotational constants (GHZ):      0.8113965      0.1443547      0.1225516
 Standard basis: 6-31+G(d,p) (6D, 7F)
 There are   478 symmetry adapted basis functions of A   symmetry.
 Integral buffers will be    262144 words long.
 Raffenetti 2 integral format.
 Two-electron integral symmetry is turned on.
   478 basis functions,   788 primitive gaussians,   478 cartesian basis functions
    75 alpha electrons       74 beta electrons
       nuclear repulsion energy      1595.2159677335 Hartrees.
 NAtoms=   34 NActive=   34 NUniq=   34 SFac= 1.00D+00 NAtFMM=   50 NAOKFM=F Big=F
 One-electron integrals computed using PRISM.
 NBasis=   478 RedAO= T  NBF=   478
 NBsUse=   473 1.00D-06 NBFU=   473
 Harris functional with IExCor=  402 diagonalized for initial guess.
 ExpMin= 4.38D-02 ExpMax= 5.48D+03 ExpMxC= 8.25D+02 IAcc=2 IRadAn=         0 AccDes= 0.00D+00
 HarFok:  IExCor=  402 AccDes= 0.00D+00 IRadAn=         0 IDoV= 1
 ScaDFX=  1.000000  1.000000  1.000000  1.000000
 FoFCou: FMM=F IPFlag=           0 FMFlag=      100000 FMFlg1=           0
         NFxFlg=           0 DoJE=T BraDBF=F KetDBF=T FulRan=T
         Omega=  0.000000  0.000000  1.000000  0.000000  0.000000 ICntrl=     500 IOpCl=  0
         NMat0=    1 NMatS0=    1 NMatT0=    0 NMatD0=    1 NMtDS0=    0 NMtDT0=    0
         I1Cent=           4 NGrid=           0.
 Petite list used in FoFCou.
 Initial guess orbital symmetries:
 Alpha Orbitals:
       Occupied  (A) (A) (A) (A) (A) (A) (A) (A) (A) (A) (A) (A)
                 (A) (A) (A) (A) (A) (A) (A) (A) (A) (A) (A) (A)
                 (A) (A) (A) (A) (A) (A) (A) (A) (A) (A) (A) (A)
                 (A) (A) (A) (A) (A) (A) (A) (A) (A) (A) (A) (A)
                 (A) (A) (A) (A) (A) (A) (A) (A) (A) (A) (A) (A)
                 (A) (A) (A) (A) (A) (A) (A) (A) (A) (A) (A) (A)
                 (A) (A) (A)
       Virtual   (A) (A) (A) (A) (A) (A) (A) (A) (A) (A) (A) (A)
                 (A) (A) (A) (A) (A) (A) (A) (A) (A) (A) (A) (A)
                 (A) (A) (A) (A) (A) (A) (A) (A) (A) (A) (A) (A)
                 (A) (A) (A) (A) (A) (A) (A) (A) (A) (A) (A) (A)
                 (A) (A) (A) (A) (A) (A) (A) (A) (A) (A) (A) (A)
                 (A) (A) (A) (A) (A) (A) (A) (A) (A) (A) (A) (A)
                 (A) (A) (A) (A) (A) (A) (A) (A) (A) (A) (A) (A)
                 (A) (A) (A) (A) (A) (A) (A) (A) (A) (A) (A) (A)
                 (A) (A) (A) (A) (A) (A) (A) (A) (A) (A) (A) (A)
                 (A) (A) (A) (A) (A) (A) (A) (A) (A) (A) (A) (A)
                 (A) (A) (A) (A) (A) (A) (A) (A) (A) (A) (A) (A)
                 (A) (A) (A) (A) (A) (A) (A) (A) (A) (A) (A) (A)
                 (A) (A) (A) (A) (A) (A) (A) (A) (A) (A) (A) (A)
                 (A) (A) (A) (A) (A) (A) (A) (A) (A) (A) (A) (A)
                 (A) (A) (A) (A) (A) (A) (A) (A) (A) (A) (A) (A)
                 (A) (A) (A) (A) (A) (A) (A) (A) (A) (A) (A) (A)
                 (A) (A) (A) (A) (A) (A) (A) (A) (A) (A) (A) (A)
                 (A) (A) (A) (A) (A) (A) (A) (A) (A) (A) (A) (A)
                 (A) (A) (A) (A) (A) (A) (A) (A) (A) (A) (A) (A)
                 (A) (A) (A) (A) (A) (A) (A) (A) (A) (A) (A) (A)
                 (A) (A) (A) (A) (A) (A) (A) (A) (A) (A) (A) (A)
                 (A) (A) (A) (A) (A) (A) (A) (A) (A) (A) (A) (A)
                 (A) (A) (A) (A) (A) (A) (A) (A) (A) (A) (A) (A)
                 (A) (A) (A) (A) (A) (A) (A) (A) (A) (A) (A) (A)
                 (A) (A) (A) (A) (A) (A) (A) (A) (A) (A) (A) (A)
                 (A) (A) (A) (A) (A) (A) (A) (A) (A) (A) (A) (A)
                 (A) (A) (A) (A) (A) (A) (A) (A) (A) (A) (A) (A)
                 (A) (A) (A) (A) (A) (A) (A) (A) (A) (A) (A) (A)
                 (A) (A) (A) (A) (A) (A) (A) (A) (A) (A) (A) (A)
                 (A) (A) (A) (A) (A) (A) (A) (A) (A) (A) (A) (A)
                 (A) (A) (A) (A) (A) (A) (A) (A) (A) (A) (A) (A)
                 (A) (A) (A) (A) (A) (A) (A) (A) (A) (A) (A) (A)
                 (A) (A) (A) (A) (A) (A) (A) (A) (A) (A) (A) (A)
                 (A) (A)
 Beta  Orbitals:
       Occupied  (A) (A) (A) (A) (A) (A) (A) (A) (A) (A) (A) (A)
                 (A) (A) (A) (A) (A) (A) (A) (A) (A) (A) (A) (A)
                 (A) (A) (A) (A) (A) (A) (A) (A) (A) (A) (A) (A)
                 (A) (A) (A) (A) (A) (A) (A) (A) (A) (A) (A) (A)
                 (A) (A) (A) (A) (A) (A) (A) (A) (A) (A) (A) (A)
                 (A) (A) (A) (A) (A) (A) (A) (A) (A) (A) (A) (A)
                 (A) (A)
       Virtual   (A) (A) (A) (A) (A) (A) (A) (A) (A) (A) (A) (A)
                 (A) (A) (A) (A) (A) (A) (A) (A) (A) (A) (A) (A)
                 (A) (A) (A) (A) (A) (A) (A) (A) (A) (A) (A) (A)
                 (A) (A) (A) (A) (A) (A) (A) (A) (A) (A) (A) (A)
                 (A) (A) (A) (A) (A) (A) (A) (A) (A) (A) (A) (A)
                 (A) (A) (A) (A) (A) (A) (A) (A) (A) (A) (A) (A)
                 (A) (A) (A) (A) (A) (A) (A) (A) (A) (A) (A) (A)
                 (A) (A) (A) (A) (A) (A) (A) (A) (A) (A) (A) (A)
                 (A) (A) (A) (A) (A) (A) (A) (A) (A) (A) (A) (A)
                 (A) (A) (A) (A) (A) (A) (A) (A) (A) (A) (A) (A)
                 (A) (A) (A) (A) (A) (A) (A) (A) (A) (A) (A) (A)
                 (A) (A) (A) (A) (A) (A) (A) (A) (A) (A) (A) (A)
                 (A) (A) (A) (A) (A) (A) (A) (A) (A) (A) (A) (A)
                 (A) (A) (A) (A) (A) (A) (A) (A) (A) (A) (A) (A)
                 (A) (A) (A) (A) (A) (A) (A) (A) (A) (A) (A) (A)
                 (A) (A) (A) (A) (A) (A) (A) (A) (A) (A) (A) (A)
                 (A) (A) (A) (A) (A) (A) (A) (A) (A) (A) (A) (A)
                 (A) (A) (A) (A) (A) (A) (A) (A) (A) (A) (A) (A)
                 (A) (A) (A) (A) (A) (A) (A) (A) (A) (A) (A) (A)
                 (A) (A) (A) (A) (A) (A) (A) (A) (A) (A) (A) (A)
                 (A) (A) (A) (A) (A) (A) (A) (A) (A) (A) (A) (A)
                 (A) (A) (A) (A) (A) (A) (A) (A) (A) (A) (A) (A)
                 (A) (A) (A) (A) (A) (A) (A) (A) (A) (A) (A) (A)
                 (A) (A) (A) (A) (A) (A) (A) (A) (A) (A) (A) (A)
                 (A) (A) (A) (A) (A) (A) (A) (A) (A) (A) (A) (A)
                 (A) (A) (A) (A) (A) (A) (A) (A) (A) (A) (A) (A)
                 (A) (A) (A) (A) (A) (A) (A) (A) (A) (A) (A) (A)
                 (A) (A) (A) (A) (A) (A) (A) (A) (A) (A) (A) (A)
                 (A) (A) (A) (A) (A) (A) (A) (A) (A) (A) (A) (A)
                 (A) (A) (A) (A) (A) (A) (A) (A) (A) (A) (A) (A)
                 (A) (A) (A) (A) (A) (A) (A) (A) (A) (A) (A) (A)
                 (A) (A) (A) (A) (A) (A) (A) (A) (A) (A) (A) (A)
                 (A) (A) (A) (A) (A) (A) (A) (A) (A) (A) (A) (A)
                 (A) (A) (A)
 The electronic state of the initial guess is 2-A.
 Initial guess <Sx>= 0.0000 <Sy>= 0.0000 <Sz>= 0.5000 <S**2>= 0.7500 S= 0.5000
 Requested convergence on RMS density matrix=1.00D-08 within 128 cycles.
 Requested convergence on MAX density matrix=1.00D-06.
 Requested convergence on             energy=1.00D-06.
 No special actions if energy rises.
 Restarting incremental Fock formation.
 SCF Done:  E(UB3LYP) =  -952.916679819     A.U. after   23 cycles
             Convg  =    0.1688D-08             -V/T =  2.0095
 <Sx>= 0.0000 <Sy>= 0.0000 <Sz>= 0.5000 <S**2>= 0.7582 S= 0.5041
 <L.S>= 0.000000000000E+00
 Annihilation of the first spin contaminant:
 S**2 before annihilation     0.7582,   after     0.7501

 **********************************************************************

            Population analysis using the SCF density.

 **********************************************************************

 Orbital symmetries:
 Alpha Orbitals:
       Occupied  (A) (A) (A) (A) (A) (A) (A) (A) (A) (A) (A) (A)
                 (A) (A) (A) (A) (A) (A) (A) (A) (A) (A) (A) (A)
                 (A) (A) (A) (A) (A) (A) (A) (A) (A) (A) (A) (A)
                 (A) (A) (A) (A) (A) (A) (A) (A) (A) (A) (A) (A)
                 (A) (A) (A) (A) (A) (A) (A) (A) (A) (A) (A) (A)
                 (A) (A) (A) (A) (A) (A) (A) (A) (A) (A) (A) (A)
                 (A) (A) (A)
       Virtual   (A) (A) (A) (A) (A) (A) (A) (A) (A) (A) (A) (A)
                 (A) (A) (A) (A) (A) (A) (A) (A) (A) (A) (A) (A)
                 (A) (A) (A) (A) (A) (A) (A) (A) (A) (A) (A) (A)
                 (A) (A) (A) (A) (A) (A) (A) (A) (A) (A) (A) (A)
                 (A) (A) (A) (A) (A) (A) (A) (A) (A) (A) (A) (A)
                 (A) (A) (A) (A) (A) (A) (A) (A) (A) (A) (A) (A)
                 (A) (A) (A) (A) (A) (A) (A) (A) (A) (A) (A) (A)
                 (A) (A) (A) (A) (A) (A) (A) (A) (A) (A) (A) (A)
                 (A) (A) (A) (A) (A) (A) (A) (A) (A) (A) (A) (A)
                 (A) (A) (A) (A) (A) (A) (A) (A) (A) (A) (A) (A)
                 (A) (A) (A) (A) (A) (A) (A) (A) (A) (A) (A) (A)
                 (A) (A) (A) (A) (A) (A) (A) (A) (A) (A) (A) (A)
                 (A) (A) (A) (A) (A) (A) (A) (A) (A) (A) (A) (A)
                 (A) (A) (A) (A) (A) (A) (A) (A) (A) (A) (A) (A)
                 (A) (A) (A) (A) (A) (A) (A) (A) (A) (A) (A) (A)
                 (A) (A) (A) (A) (A) (A) (A) (A) (A) (A) (A) (A)
                 (A) (A) (A) (A) (A) (A) (A) (A) (A) (A) (A) (A)
                 (A) (A) (A) (A) (A) (A) (A) (A) (A) (A) (A) (A)
                 (A) (A) (A) (A) (A) (A) (A) (A) (A) (A) (A) (A)
                 (A) (A) (A) (A) (A) (A) (A) (A) (A) (A) (A) (A)
                 (A) (A) (A) (A) (A) (A) (A) (A) (A) (A) (A) (A)
                 (A) (A) (A) (A) (A) (A) (A) (A) (A) (A) (A) (A)
                 (A) (A) (A) (A) (A) (A) (A) (A) (A) (A) (A) (A)
                 (A) (A) (A) (A) (A) (A) (A) (A) (A) (A) (A) (A)
                 (A) (A) (A) (A) (A) (A) (A) (A) (A) (A) (A) (A)
                 (A) (A) (A) (A) (A) (A) (A) (A) (A) (A) (A) (A)
                 (A) (A) (A) (A) (A) (A) (A) (A) (A) (A) (A) (A)
                 (A) (A) (A) (A) (A) (A) (A) (A) (A) (A) (A) (A)
                 (A) (A) (A) (A) (A) (A) (A) (A) (A) (A) (A) (A)
                 (A) (A) (A) (A) (A) (A) (A) (A) (A) (A) (A) (A)
                 (A) (A) (A) (A) (A) (A) (A) (A) (A) (A) (A) (A)
                 (A) (A) (A) (A) (A) (A) (A) (A) (A) (A) (A) (A)
                 (A) (A) (A) (A) (A) (A) (A) (A) (A) (A) (A) (A)
                 (A) (A)
 Beta  Orbitals:
       Occupied  (A) (A) (A) (A) (A) (A) (A) (A) (A) (A) (A) (A)
                 (A) (A) (A) (A) (A) (A) (A) (A) (A) (A) (A) (A)
                 (A) (A) (A) (A) (A) (A) (A) (A) (A) (A) (A) (A)
                 (A) (A) (A) (A) (A) (A) (A) (A) (A) (A) (A) (A)
                 (A) (A) (A) (A) (A) (A) (A) (A) (A) (A) (A) (A)
                 (A) (A) (A) (A) (A) (A) (A) (A) (A) (A) (A) (A)
                 (A) (A)
       Virtual   (A) (A) (A) (A) (A) (A) (A) (A) (A) (A) (A) (A)
                 (A) (A) (A) (A) (A) (A) (A) (A) (A) (A) (A) (A)
                 (A) (A) (A) (A) (A) (A) (A) (A) (A) (A) (A) (A)
                 (A) (A) (A) (A) (A) (A) (A) (A) (A) (A) (A) (A)
                 (A) (A) (A) (A) (A) (A) (A) (A) (A) (A) (A) (A)
                 (A) (A) (A) (A) (A) (A) (A) (A) (A) (A) (A) (A)
                 (A) (A) (A) (A) (A) (A) (A) (A) (A) (A) (A) (A)
                 (A) (A) (A) (A) (A) (A) (A) (A) (A) (A) (A) (A)
                 (A) (A) (A) (A) (A) (A) (A) (A) (A) (A) (A) (A)
                 (A) (A) (A) (A) (A) (A) (A) (A) (A) (A) (A) (A)
                 (A) (A) (A) (A) (A) (A) (A) (A) (A) (A) (A) (A)
                 (A) (A) (A) (A) (A) (A) (A) (A) (A) (A) (A) (A)
                 (A) (A) (A) (A) (A) (A) (A) (A) (A) (A) (A) (A)
                 (A) (A) (A) (A) (A) (A) (A) (A) (A) (A) (A) (A)
                 (A) (A) (A) (A) (A) (A) (A) (A) (A) (A) (A) (A)
                 (A) (A) (A) (A) (A) (A) (A) (A) (A) (A) (A) (A)
                 (A) (A) (A) (A) (A) (A) (A) (A) (A) (A) (A) (A)
                 (A) (A) (A) (A) (A) (A) (A) (A) (A) (A) (A) (A)
                 (A) (A) (A) (A) (A) (A) (A) (A) (A) (A) (A) (A)
                 (A) (A) (A) (A) (A) (A) (A) (A) (A) (A) (A) (A)
                 (A) (A) (A) (A) (A) (A) (A) (A) (A) (A) (A) (A)
                 (A) (A) (A) (A) (A) (A) (A) (A) (A) (A) (A) (A)
                 (A) (A) (A) (A) (A) (A) (A) (A) (A) (A) (A) (A)
                 (A) (A) (A) (A) (A) (A) (A) (A) (A) (A) (A) (A)
                 (A) (A) (A) (A) (A) (A) (A) (A) (A) (A) (A) (A)
                 (A) (A) (A) (A) (A) (A) (A) (A) (A) (A) (A) (A)
                 (A) (A) (A) (A) (A) (A) (A) (A) (A) (A) (A) (A)
                 (A) (A) (A) (A) (A) (A) (A) (A) (A) (A) (A) (A)
                 (A) (A) (A) (A) (A) (A) (A) (A) (A) (A) (A) (A)
                 (A) (A) (A) (A) (A) (A) (A) (A) (A) (A) (A) (A)
                 (A) (A) (A) (A) (A) (A) (A) (A) (A) (A) (A) (A)
                 (A) (A) (A) (A) (A) (A) (A) (A) (A) (A) (A) (A)
                 (A) (A) (A) (A) (A) (A) (A) (A) (A) (A) (A) (A)
                 (A) (A) (A)
 The electronic state is 2-A.
 Alpha  occ. eigenvalues --  -19.30429 -19.30429 -14.54747 -14.54747 -10.46600
 Alpha  occ. eigenvalues --  -10.46599 -10.44080 -10.44080 -10.37610 -10.37567
 Alpha  occ. eigenvalues --  -10.36502 -10.36502 -10.34883 -10.34883 -10.34108
 Alpha  occ. eigenvalues --  -10.34108 -10.34057 -10.34057 -10.33410 -10.33410
 Alpha  occ. eigenvalues --  -10.32962 -10.32962  -1.21499  -1.20964  -1.14396
 Alpha  occ. eigenvalues --   -1.12773  -1.00816  -1.00754  -0.98036  -0.94058
 Alpha  occ. eigenvalues --   -0.92453  -0.89245  -0.89060  -0.87501  -0.84308
 Alpha  occ. eigenvalues --   -0.83946  -0.77522  -0.75747  -0.75334  -0.74610
 Alpha  occ. eigenvalues --   -0.72092  -0.70579  -0.68577  -0.67707  -0.65381
 Alpha  occ. eigenvalues --   -0.63915  -0.63286  -0.62848  -0.61728  -0.60368
 Alpha  occ. eigenvalues --   -0.59973  -0.59030  -0.58866  -0.58633  -0.57578
 Alpha  occ. eigenvalues --   -0.57080  -0.56417  -0.55981  -0.54699  -0.54345
 Alpha  occ. eigenvalues --   -0.52805  -0.49825  -0.49818  -0.49746  -0.49509
 Alpha  occ. eigenvalues --   -0.48606  -0.48501  -0.43917  -0.43628  -0.42407
 Alpha  occ. eigenvalues --   -0.41602  -0.41091  -0.39634  -0.39580  -0.36300
 Alpha virt. eigenvalues --   -0.25723  -0.19304  -0.15049  -0.14924  -0.14430
 Alpha virt. eigenvalues --   -0.12380  -0.11811  -0.10904  -0.09661  -0.08379
 Alpha virt. eigenvalues --   -0.07896  -0.07148  -0.06257  -0.06200  -0.06077
 Alpha virt. eigenvalues --   -0.05712  -0.05495  -0.04772  -0.04451  -0.04313
 Alpha virt. eigenvalues --   -0.03957  -0.03711  -0.03202  -0.02707  -0.02649
 Alpha virt. eigenvalues --   -0.02454  -0.01315  -0.01090  -0.00374  -0.00217
 Alpha virt. eigenvalues --    0.00178   0.00839   0.00921   0.01040   0.01714
 Alpha virt. eigenvalues --    0.01936   0.02219   0.02548   0.02565   0.03347
 Alpha virt. eigenvalues --    0.03990   0.04194   0.04654   0.04659   0.04941
 Alpha virt. eigenvalues --    0.05022   0.05277   0.05365   0.05895   0.06336
 Alpha virt. eigenvalues --    0.06795   0.07290   0.07337   0.07761   0.07789
 Alpha virt. eigenvalues --    0.08218   0.08313   0.08712   0.08999   0.09247
 Alpha virt. eigenvalues --    0.09639   0.09836   0.10796   0.11038   0.11274
 Alpha virt. eigenvalues --    0.11486   0.11954   0.12047   0.12188   0.12198
 Alpha virt. eigenvalues --    0.12486   0.12514   0.13167   0.13446   0.13985
 Alpha virt. eigenvalues --    0.14307   0.14359   0.14483   0.14610   0.15248
 Alpha virt. eigenvalues --    0.15410   0.15496   0.16176   0.16370   0.17074
 Alpha virt. eigenvalues --    0.17253   0.17460   0.17487   0.18421   0.18624
 Alpha virt. eigenvalues --    0.19533   0.19956   0.20276   0.20381   0.20587
 Alpha virt. eigenvalues --    0.20881   0.21006   0.21686   0.21807   0.22211
 Alpha virt. eigenvalues --    0.22402   0.23053   0.23491   0.23534   0.24609
 Alpha virt. eigenvalues --    0.24879   0.25665   0.26364   0.26626   0.27535
 Alpha virt. eigenvalues --    0.28823   0.29459   0.30056   0.30411   0.31639
 Alpha virt. eigenvalues --    0.32330   0.32856   0.34902   0.36194   0.38105
 Alpha virt. eigenvalues --    0.38234   0.38746   0.39581   0.42716   0.42724
 Alpha virt. eigenvalues --    0.45565   0.46873   0.48581   0.49278   0.50833
 Alpha virt. eigenvalues --    0.53665   0.54711   0.55665   0.55745   0.55936
 Alpha virt. eigenvalues --    0.55980   0.56984   0.57735   0.57792   0.57966
 Alpha virt. eigenvalues --    0.58315   0.59030   0.59610   0.60633   0.61016
 Alpha virt. eigenvalues --    0.61490   0.61583   0.61908   0.62826   0.63284
 Alpha virt. eigenvalues --    0.64219   0.64356   0.65209   0.66077   0.66123
 Alpha virt. eigenvalues --    0.66408   0.66931   0.67518   0.68105   0.69509
 Alpha virt. eigenvalues --    0.71362   0.71711   0.72724   0.73909   0.76950
 Alpha virt. eigenvalues --    0.77555   0.79403   0.80322   0.80496   0.81145
 Alpha virt. eigenvalues --    0.81612   0.81638   0.83302   0.83786   0.84222
 Alpha virt. eigenvalues --    0.86750   0.86882   0.88261   0.88717   0.89509
 Alpha virt. eigenvalues --    0.90555   0.92434   0.93993   0.94731   0.96033
 Alpha virt. eigenvalues --    0.96263   0.97511   0.98913   1.00461   1.00541
 Alpha virt. eigenvalues --    1.00691   1.02573   1.03280   1.04232   1.05128
 Alpha virt. eigenvalues --    1.06284   1.06614   1.08145   1.08752   1.08983
 Alpha virt. eigenvalues --    1.09974   1.10547   1.11072   1.12045   1.12158
 Alpha virt. eigenvalues --    1.12506   1.13843   1.14649   1.15050   1.16867
 Alpha virt. eigenvalues --    1.18152   1.18419   1.19171   1.19940   1.20304
 Alpha virt. eigenvalues --    1.20855   1.21007   1.21382   1.23019   1.23750
 Alpha virt. eigenvalues --    1.24265   1.24818   1.26058   1.26383   1.26536
 Alpha virt. eigenvalues --    1.27585   1.27644   1.27941   1.27951   1.28664
 Alpha virt. eigenvalues --    1.29108   1.32233   1.32680   1.34319   1.34950
 Alpha virt. eigenvalues --    1.37646   1.40709   1.41283   1.45348   1.45607
 Alpha virt. eigenvalues --    1.47319   1.50914   1.57977   1.58771   1.59440
 Alpha virt. eigenvalues --    1.60920   1.62147   1.62170   1.65815   1.66316
 Alpha virt. eigenvalues --    1.67010   1.68413   1.70615   1.70949   1.73061
 Alpha virt. eigenvalues --    1.73842   1.74855   1.77079   1.77127   1.77612
 Alpha virt. eigenvalues --    1.78265   1.78466   1.79841   1.81529   1.82204
 Alpha virt. eigenvalues --    1.82245   1.83364   1.83805   1.84606   1.85529
 Alpha virt. eigenvalues --    1.86324   1.87521   1.88221   1.88516   1.88570
 Alpha virt. eigenvalues --    1.89640   1.90859   1.91464   1.92715   1.93291
 Alpha virt. eigenvalues --    1.94591   1.95279   1.95334   1.97647   1.97673
 Alpha virt. eigenvalues --    2.00950   2.01938   2.03528   2.03595   2.11172
 Alpha virt. eigenvalues --    2.11959   2.12885   2.13077   2.14669   2.15616
 Alpha virt. eigenvalues --    2.17259   2.18892   2.20298   2.21936   2.22327
 Alpha virt. eigenvalues --    2.25466   2.25779   2.25865   2.26012   2.27314
 Alpha virt. eigenvalues --    2.27575   2.28488   2.29018   2.29412   2.31566
 Alpha virt. eigenvalues --    2.34022   2.34854   2.34889   2.37273   2.37557
 Alpha virt. eigenvalues --    2.37818   2.37821   2.39670   2.39848   2.41496
 Alpha virt. eigenvalues --    2.42632   2.43603   2.43945   2.45793   2.45860
 Alpha virt. eigenvalues --    2.45976   2.49446   2.49537   2.50164   2.50919
 Alpha virt. eigenvalues --    2.52176   2.53140   2.53575   2.56753   2.58006
 Alpha virt. eigenvalues --    2.59152   2.60276   2.60305   2.62186   2.62965
 Alpha virt. eigenvalues --    2.65382   2.67428   2.69250   2.71529   2.73254
 Alpha virt. eigenvalues --    2.76693   2.80744   2.80762   2.85311   2.87597
 Alpha virt. eigenvalues --    2.89444   2.90769   2.93809   2.94071   2.95653
 Alpha virt. eigenvalues --    3.01481   3.05219   3.06258   3.12378   3.12574
 Alpha virt. eigenvalues --    3.14358   3.14641   3.16301   3.17030   3.18976
 Alpha virt. eigenvalues --    3.21090   3.27286   3.31666   3.32201   3.34148
 Alpha virt. eigenvalues --    3.41318   3.41928   3.42945   3.43819   3.76673
 Alpha virt. eigenvalues --    3.76809   4.09827   4.15362   4.15560   4.17863
 Alpha virt. eigenvalues --    4.19068   4.19163   4.20806   4.20924   4.23113
 Alpha virt. eigenvalues --    4.25506   4.26835   4.32190   4.33945   4.37839
 Alpha virt. eigenvalues --    4.38734   4.44162   4.53755   4.60879   4.73053
 Alpha virt. eigenvalues --    4.75095   4.88830   4.96656
  Beta  occ. eigenvalues --  -19.30051 -19.30051 -14.54731 -14.54731 -10.46644
  Beta  occ. eigenvalues --  -10.46644 -10.43941 -10.43941 -10.37365 -10.37321
  Beta  occ. eigenvalues --  -10.36493 -10.36493 -10.34833 -10.34833 -10.34004
  Beta  occ. eigenvalues --  -10.34004 -10.33983 -10.33983 -10.33429 -10.33429
  Beta  occ. eigenvalues --  -10.32999 -10.32999  -1.20986  -1.20413  -1.13950
  Beta  occ. eigenvalues --   -1.12498  -1.00654  -1.00610  -0.97570  -0.93649
  Beta  occ. eigenvalues --   -0.92280  -0.89165  -0.88989  -0.86985  -0.84128
  Beta  occ. eigenvalues --   -0.83629  -0.77289  -0.75643  -0.75240  -0.74494
  Beta  occ. eigenvalues --   -0.71929  -0.70445  -0.68448  -0.67640  -0.65181
  Beta  occ. eigenvalues --   -0.63762  -0.62703  -0.62256  -0.61622  -0.60285
  Beta  occ. eigenvalues --   -0.59675  -0.58796  -0.58516  -0.58242  -0.57435
  Beta  occ. eigenvalues --   -0.56977  -0.56371  -0.55947  -0.54511  -0.53279
  Beta  occ. eigenvalues --   -0.51999  -0.49770  -0.49690  -0.48659  -0.48554
  Beta  occ. eigenvalues --   -0.48459  -0.48355  -0.43536  -0.42498  -0.42025
  Beta  occ. eigenvalues --   -0.40458  -0.40125  -0.39453  -0.39378
  Beta virt. eigenvalues --   -0.31149  -0.24133  -0.18312  -0.14800  -0.14680
  Beta virt. eigenvalues --   -0.13789  -0.11773  -0.11690  -0.10886  -0.09593
  Beta virt. eigenvalues --   -0.08355  -0.07887  -0.07081  -0.06234  -0.06066
  Beta virt. eigenvalues --   -0.05682  -0.05479  -0.05420  -0.04739  -0.04291
  Beta virt. eigenvalues --   -0.03929  -0.03607  -0.03590  -0.02797  -0.02673
  Beta virt. eigenvalues --   -0.02588  -0.02411  -0.01302  -0.01060  -0.00178
  Beta virt. eigenvalues --   -0.00111   0.00205   0.00867   0.00993   0.01063
  Beta virt. eigenvalues --    0.01970   0.01984   0.02359   0.02585   0.02998
  Beta virt. eigenvalues --    0.03510   0.04048   0.04257   0.04703   0.04720
  Beta virt. eigenvalues --    0.04996   0.05065   0.05417   0.05419   0.05943
  Beta virt. eigenvalues --    0.06402   0.06817   0.07321   0.07417   0.07832
  Beta virt. eigenvalues --    0.07878   0.08237   0.08380   0.08802   0.09144
  Beta virt. eigenvalues --    0.09296   0.09719   0.09887   0.10838   0.11126
  Beta virt. eigenvalues --    0.11370   0.11557   0.11975   0.12080   0.12284
  Beta virt. eigenvalues --    0.12345   0.12522   0.12539   0.13235   0.13547
  Beta virt. eigenvalues --    0.14267   0.14369   0.14477   0.14553   0.14639
  Beta virt. eigenvalues --    0.15311   0.15518   0.15568   0.16210   0.16437
  Beta virt. eigenvalues --    0.17117   0.17340   0.17513   0.17564   0.18452
  Beta virt. eigenvalues --    0.18668   0.19628   0.20030   0.20334   0.20397
  Beta virt. eigenvalues --    0.20625   0.21051   0.21104   0.21877   0.21933
  Beta virt. eigenvalues --    0.22299   0.22489   0.23126   0.23580   0.23636
  Beta virt. eigenvalues --    0.24671   0.24945   0.25712   0.26408   0.26775
  Beta virt. eigenvalues --    0.27570   0.28885   0.29496   0.30094   0.30444
  Beta virt. eigenvalues --    0.31710   0.32394   0.32957   0.34997   0.36254
  Beta virt. eigenvalues --    0.38208   0.38296   0.38858   0.39676   0.42797
  Beta virt. eigenvalues --    0.42969   0.45636   0.47025   0.48728   0.49395
  Beta virt. eigenvalues --    0.51040   0.54071   0.54909   0.55855   0.56027
  Beta virt. eigenvalues --    0.56181   0.56321   0.57032   0.57837   0.57857
  Beta virt. eigenvalues --    0.58183   0.58384   0.59101   0.59696   0.60843
  Beta virt. eigenvalues --    0.61063   0.61541   0.61780   0.62123   0.63173
  Beta virt. eigenvalues --    0.63348   0.64419   0.64563   0.65260   0.66126
  Beta virt. eigenvalues --    0.66462   0.66641   0.66964   0.68238   0.68403
  Beta virt. eigenvalues --    0.69652   0.71419   0.71761   0.73059   0.73981
  Beta virt. eigenvalues --    0.76990   0.77589   0.79443   0.80402   0.80557
  Beta virt. eigenvalues --    0.81309   0.81603   0.81627   0.83344   0.83812
  Beta virt. eigenvalues --    0.84334   0.86784   0.86926   0.88372   0.88738
  Beta virt. eigenvalues --    0.89544   0.90591   0.92491   0.94107   0.94777
  Beta virt. eigenvalues --    0.96179   0.96355   0.97576   0.98950   1.00564
  Beta virt. eigenvalues --    1.00697   1.00835   1.02599   1.03347   1.04331
  Beta virt. eigenvalues --    1.05699   1.06399   1.06720   1.08656   1.08941
  Beta virt. eigenvalues --    1.09691   1.10117   1.10768   1.11144   1.12567
  Beta virt. eigenvalues --    1.12656   1.12778   1.14514   1.14836   1.15479
  Beta virt. eigenvalues --    1.17089   1.18330   1.18579   1.19411   1.20345
  Beta virt. eigenvalues --    1.20347   1.21012   1.21152   1.21473   1.23494
  Beta virt. eigenvalues --    1.23900   1.24413   1.25170   1.26183   1.26516
  Beta virt. eigenvalues --    1.26790   1.27771   1.27849   1.28140   1.28198
  Beta virt. eigenvalues --    1.28867   1.29282   1.32426   1.32843   1.34438
  Beta virt. eigenvalues --    1.35064   1.37812   1.40865   1.41502   1.45674
  Beta virt. eigenvalues --    1.45797   1.47567   1.51273   1.58524   1.58898
  Beta virt. eigenvalues --    1.59589   1.61529   1.62351   1.62789   1.66043
  Beta virt. eigenvalues --    1.66437   1.67575   1.68487   1.70754   1.71141
  Beta virt. eigenvalues --    1.73329   1.74343   1.75080   1.77185   1.77222
  Beta virt. eigenvalues --    1.78058   1.78343   1.78534   1.79944   1.81808
  Beta virt. eigenvalues --    1.82222   1.82270   1.83563   1.83923   1.84823
  Beta virt. eigenvalues --    1.85709   1.86731   1.87649   1.88346   1.88668
  Beta virt. eigenvalues --    1.88674   1.90021   1.91052   1.91788   1.93052
  Beta virt. eigenvalues --    1.93300   1.94740   1.95442   1.95875   1.97887
  Beta virt. eigenvalues --    1.98479   2.01186   2.02064   2.03726   2.03991
  Beta virt. eigenvalues --    2.11510   2.12183   2.13229   2.13342   2.14905
  Beta virt. eigenvalues --    2.15792   2.17453   2.19325   2.20400   2.22084
  Beta virt. eigenvalues --    2.22607   2.25530   2.25848   2.25921   2.26015
  Beta virt. eigenvalues --    2.27426   2.27626   2.28629   2.29299   2.29788
  Beta virt. eigenvalues --    2.31691   2.34209   2.34841   2.34913   2.37441
  Beta virt. eigenvalues --    2.37883   2.37977   2.38002   2.39856   2.39941
  Beta virt. eigenvalues --    2.41794   2.42753   2.43668   2.44011   2.45889
  Beta virt. eigenvalues --    2.45914   2.46033   2.49709   2.49756   2.50394
  Beta virt. eigenvalues --    2.51143   2.52272   2.53216   2.53687   2.56891
  Beta virt. eigenvalues --    2.58089   2.59318   2.60460   2.60620   2.62503
  Beta virt. eigenvalues --    2.63088   2.65709   2.67512   2.69406   2.71636
  Beta virt. eigenvalues --    2.73291   2.77422   2.80859   2.80927   2.85475
  Beta virt. eigenvalues --    2.87716   2.89589   2.90933   2.93864   2.94101
  Beta virt. eigenvalues --    2.95701   3.01610   3.05318   3.06356   3.12545
  Beta virt. eigenvalues --    3.12752   3.14371   3.14662   3.16339   3.17084
  Beta virt. eigenvalues --    3.19030   3.21163   3.27344   3.31697   3.32235
  Beta virt. eigenvalues --    3.34259   3.41340   3.41956   3.42989   3.43848
  Beta virt. eigenvalues --    3.76712   3.76850   4.09959   4.15479   4.15679
  Beta virt. eigenvalues --    4.17918   4.19123   4.19461   4.20977   4.21035
  Beta virt. eigenvalues --    4.23279   4.25801   4.27145   4.32314   4.34090
  Beta virt. eigenvalues --    4.37922   4.38807   4.44332   4.53994   4.61272
  Beta virt. eigenvalues --    4.73202   4.75272   4.89123   4.96986
          Condensed to atoms (all electrons):
              1          2          3          4          5          6
     1  N    7.304565   0.517290  -0.184001  -0.034876  -0.360834   0.026782
     2  C    0.517290  10.174294  -1.661896  -0.774756  -3.073836  -0.128039
     3  C   -0.184001  -1.661896   7.890457  -0.108988   0.418146  -0.119336
     4  C   -0.034876  -0.774756  -0.108988   9.789771   0.553750   0.418146
     5  C   -0.360834  -3.073836   0.418146   0.553750   9.789766  -0.108990
     6  C    0.026782  -0.128039  -0.119336   0.418146  -0.108990   7.890476
     7  C    0.075719   1.229534  -0.128043  -3.073837  -0.774746  -1.661905
     8  N    0.006800   0.075720   0.026782  -0.360838  -0.034875  -0.184003
     9  O   -0.056017   0.084209  -0.008575  -0.024886   0.158887   0.013863
    10  O   -0.003603  -0.032358   0.013864   0.158890  -0.024887  -0.008574
    11  H    0.000187   0.008173  -0.005637  -0.012444   0.045980  -0.066562
    12  H    0.311848   0.009036  -0.066562   0.045979  -0.012443  -0.005637
    13  C   -0.119249  -1.627345  -0.142277   0.103919   1.078678  -1.522694
    14  C    0.102017   1.202167  -0.027299  -0.130485  -0.190221  -0.788163
    15  C   -0.032108  -0.389598  -0.036882  -0.398056  -1.114744   2.105065
    16  C    0.001175  -0.040434   0.074734   0.206061   0.159819   0.047312
    17  H    0.001379  -0.003629   0.017846   0.023305   0.057473  -0.003507
    18  C    0.003170   0.102827  -0.012165  -0.026866   0.298148  -0.275212
    19  H   -0.000048  -0.004948   0.001064   0.008037   0.015949   0.111685
    20  C    0.001068   0.016089  -0.006267  -0.054954  -0.088204  -0.107640
    21  H   -0.000014  -0.002762  -0.000069  -0.000123   0.000493  -0.000721
    22  H    0.000000  -0.000130  -0.000015   0.000272  -0.002052  -0.009079
    23  H    0.000000   0.000032  -0.000006  -0.000070  -0.000622  -0.000585
    24  C   -0.206179  -0.154133  -1.522686   1.078689   0.103902  -0.142283
    25  C    0.094982  -1.159465   2.105051  -1.114762  -0.398062  -0.036886
    26  C   -0.251173   1.192972  -0.788144  -0.190216  -0.130482  -0.027294
    27  C    0.087516   0.164958  -0.275208   0.298145  -0.026862  -0.012165
    28  H   -0.012445   0.003645   0.111684   0.015949   0.008037   0.001064
    29  C    0.081151  -0.125192   0.047302   0.159822   0.206069   0.074737
    30  H    0.000243  -0.002427  -0.003507   0.057472   0.023305   0.017846
    31  C   -0.014553   0.015848  -0.107639  -0.088205  -0.054955  -0.006268
    32  H    0.000573  -0.000075  -0.009079  -0.002052   0.000272  -0.000015
    33  H    0.000078   0.000001  -0.000721   0.000493  -0.000123  -0.000069
    34  H    0.000002  -0.000023  -0.000585  -0.000622  -0.000070  -0.000006
              7          8          9         10         11         12
     1  N    0.075719   0.006800  -0.056017  -0.003603   0.000187   0.311848
     2  C    1.229534   0.075720   0.084209  -0.032358   0.008173   0.009036
     3  C   -0.128043   0.026782  -0.008575   0.013864  -0.005637  -0.066562
     4  C   -3.073837  -0.360838  -0.024886   0.158890  -0.012444   0.045979
     5  C   -0.774746  -0.034875   0.158887  -0.024887   0.045980  -0.012443
     6  C   -1.661905  -0.184003   0.013863  -0.008574  -0.066562  -0.005637
     7  C   10.174293   0.517295  -0.032358   0.084206   0.009037   0.008173
     8  N    0.517295   7.304565  -0.003603  -0.056018   0.311848   0.000187
     9  O   -0.032358  -0.003603   8.302660   0.000190   0.000013   0.000942
    10  O    0.084206  -0.056018   0.000190   8.302663   0.000942   0.000013
    11  H    0.009037   0.311848   0.000013   0.000942   0.377899   0.000000
    12  H    0.008173   0.000187   0.000942   0.000013   0.000000   0.377898
    13  C   -0.154137  -0.206179   0.243071   0.030355  -0.103015  -0.003754
    14  C    1.192973  -0.251173  -0.170476  -0.015935  -0.030955   0.002998
    15  C   -1.159464   0.094983   0.034419  -0.005888   0.072460  -0.000425
    16  C   -0.125190   0.081150  -0.107958  -0.000367   0.002845   0.000629
    17  H   -0.002427   0.000243  -0.004323   0.000005   0.000000  -0.000002
    18  C    0.164961   0.087517  -0.003379  -0.002971   0.060814   0.000006
    19  H    0.003645  -0.012446   0.000008   0.000282   0.007163   0.000000
    20  C    0.015848  -0.014553  -0.007352  -0.000044   0.001112  -0.000016
    21  H    0.000001   0.000078   0.000216   0.000000   0.000000   0.000000
    22  H   -0.000075   0.000573  -0.000001   0.000000  -0.000005   0.000000
    23  H   -0.000023   0.000002   0.000007   0.000000   0.000000   0.000000
    24  C   -1.627348  -0.119250   0.030355   0.243075  -0.003754  -0.103014
    25  C   -0.389604  -0.032109  -0.005888   0.034420  -0.000425   0.072460
    26  C    1.202174   0.102017  -0.015935  -0.170479   0.002998  -0.030955
    27  C    0.102827   0.003170  -0.002971  -0.003379   0.000006   0.060813
    28  H   -0.004948  -0.000048   0.000282   0.000008   0.000000   0.007163
    29  C   -0.040432   0.001176  -0.000367  -0.107962   0.000629   0.002845
    30  H   -0.003628   0.001379   0.000005  -0.004323  -0.000002   0.000000
    31  C    0.016090   0.001068  -0.000044  -0.007352  -0.000016   0.001112
    32  H   -0.000130   0.000000   0.000000  -0.000001   0.000000  -0.000005
    33  H   -0.002762  -0.000014   0.000000   0.000216   0.000000   0.000000
    34  H    0.000032   0.000000   0.000000   0.000007   0.000000   0.000000
             13         14         15         16         17         18
     1  N   -0.119249   0.102017  -0.032108   0.001175   0.001379   0.003170
     2  C   -1.627345   1.202167  -0.389598  -0.040434  -0.003629   0.102827
     3  C   -0.142277  -0.027299  -0.036882   0.074734   0.017846  -0.012165
     4  C    0.103919  -0.130485  -0.398056   0.206061   0.023305  -0.026866
     5  C    1.078678  -0.190221  -1.114744   0.159819   0.057473   0.298148
     6  C   -1.522694  -0.788163   2.105065   0.047312  -0.003507  -0.275212
     7  C   -0.154137   1.192973  -1.159464  -0.125190  -0.002427   0.164961
     8  N   -0.206179  -0.251173   0.094983   0.081150   0.000243   0.087517
     9  O    0.243071  -0.170476   0.034419  -0.107958  -0.004323  -0.003379
    10  O    0.030355  -0.015935  -0.005888  -0.000367   0.000005  -0.002971
    11  H   -0.103015  -0.030955   0.072460   0.002845   0.000000   0.060814
    12  H   -0.003754   0.002998  -0.000425   0.000629  -0.000002   0.000006
    13  C   16.786780  -7.043987  -2.665758   1.915259  -0.013368  -0.291748
    14  C   -7.043987  31.471108 -13.130730  -8.991452   0.116210   1.574324
    15  C   -2.665758 -13.130730  25.782421   0.883010  -0.045293  -4.670425
    16  C    1.915259  -8.991452   0.883010  12.619379   0.180319  -0.012766
    17  H   -0.013368   0.116210  -0.045293   0.180319   0.528084   0.001928
    18  C   -0.291748   1.574324  -4.670425  -0.012766   0.001928   8.437553
    19  H   -0.035374  -0.027567   0.127517  -0.001175  -0.000119   0.117923
    20  C   -1.043952   1.518563   0.090267  -0.595988  -0.023994   0.547420
    21  H    0.020745  -0.004398  -0.003724   0.301063  -0.005362   0.001268
    22  H    0.013170   0.002075   0.084845  -0.004284   0.000013   0.210573
    23  H   -0.014841   0.050748   0.047790  -0.035387  -0.000137  -0.023154
    24  C    0.228212  -0.072166  -0.038281  -0.003467  -0.000716  -0.006931
    25  C   -0.038279   0.073485  -0.050228   0.005360   0.001000   0.001824
    26  C   -0.072168  -0.047841   0.073485   0.002156  -0.000650  -0.001427
    27  C   -0.006931  -0.001427   0.001824   0.000536   0.000038   0.000088
    28  H   -0.000355   0.000268  -0.000032   0.000013   0.000000   0.000000
    29  C   -0.003466   0.002156   0.005360   0.002484   0.000006   0.000536
    30  H   -0.000716  -0.000651   0.001000   0.000006   0.000000   0.000038
    31  C    0.000193   0.000600  -0.000602  -0.000186  -0.000002  -0.000080
    32  H    0.000002  -0.000001   0.000000   0.000000   0.000000   0.000000
    33  H   -0.000001   0.000001  -0.000001   0.000000   0.000000   0.000000
    34  H    0.000000   0.000000   0.000000   0.000000   0.000000   0.000000
             19         20         21         22         23         24
     1  N   -0.000048   0.001068  -0.000014   0.000000   0.000000  -0.206179
     2  C   -0.004948   0.016089  -0.002762  -0.000130   0.000032  -0.154133
     3  C    0.001064  -0.006267  -0.000069  -0.000015  -0.000006  -1.522686
     4  C    0.008037  -0.054954  -0.000123   0.000272  -0.000070   1.078689
     5  C    0.015949  -0.088204   0.000493  -0.002052  -0.000622   0.103902
     6  C    0.111685  -0.107640  -0.000721  -0.009079  -0.000585  -0.142283
     7  C    0.003645   0.015848   0.000001  -0.000075  -0.000023  -1.627348
     8  N   -0.012446  -0.014553   0.000078   0.000573   0.000002  -0.119250
     9  O    0.000008  -0.007352   0.000216  -0.000001   0.000007   0.030355
    10  O    0.000282  -0.000044   0.000000   0.000000   0.000000   0.243075
    11  H    0.007163   0.001112   0.000000  -0.000005   0.000000  -0.003754
    12  H    0.000000  -0.000016   0.000000   0.000000   0.000000  -0.103014
    13  C   -0.035374  -1.043952   0.020745   0.013170  -0.014841   0.228212
    14  C   -0.027567   1.518563  -0.004398   0.002075   0.050748  -0.072166
    15  C    0.127517   0.090267  -0.003724   0.084845   0.047790  -0.038281
    16  C   -0.001175  -0.595988   0.301063  -0.004284  -0.035387  -0.003467
    17  H   -0.000119  -0.023994  -0.005362   0.000013  -0.000137  -0.000716
    18  C    0.117923   0.547420   0.001268   0.210573  -0.023154  -0.006931
    19  H    0.591349  -0.014402   0.000015  -0.006009  -0.000155  -0.000355
    20  C   -0.014402   5.456229   0.007354   0.024334   0.293926   0.000193
    21  H    0.000015   0.007354   0.522908  -0.000140  -0.004670  -0.000001
    22  H   -0.006009   0.024334  -0.000140   0.525951  -0.004746   0.000002
    23  H   -0.000155   0.293926  -0.004670  -0.004746   0.522374   0.000000
    24  C   -0.000355   0.000193  -0.000001   0.000002   0.000000  16.786816
    25  C   -0.000032  -0.000602  -0.000001   0.000000   0.000000  -2.665822
    26  C    0.000268   0.000600   0.000001  -0.000001   0.000000  -7.043963
    27  C    0.000000  -0.000080   0.000000   0.000000   0.000000  -0.291732
    28  H    0.000000   0.000000   0.000000   0.000000   0.000000  -0.035373
    29  C    0.000013  -0.000186   0.000000   0.000000   0.000000   1.915261
    30  H    0.000000  -0.000002   0.000000   0.000000   0.000000  -0.013369
    31  C    0.000000   0.000022   0.000000   0.000000   0.000000  -1.043960
    32  H    0.000000   0.000000   0.000000   0.000000   0.000000   0.013170
    33  H    0.000000   0.000000   0.000000   0.000000   0.000000   0.020745
    34  H    0.000000   0.000000   0.000000   0.000000   0.000000  -0.014842
             25         26         27         28         29         30
     1  N    0.094982  -0.251173   0.087516  -0.012445   0.081151   0.000243
     2  C   -1.159465   1.192972   0.164958   0.003645  -0.125192  -0.002427
     3  C    2.105051  -0.788144  -0.275208   0.111684   0.047302  -0.003507
     4  C   -1.114762  -0.190216   0.298145   0.015949   0.159822   0.057472
     5  C   -0.398062  -0.130482  -0.026862   0.008037   0.206069   0.023305
     6  C   -0.036886  -0.027294  -0.012165   0.001064   0.074737   0.017846
     7  C   -0.389604   1.202174   0.102827  -0.004948  -0.040432  -0.003628
     8  N   -0.032109   0.102017   0.003170  -0.000048   0.001176   0.001379
     9  O   -0.005888  -0.015935  -0.002971   0.000282  -0.000367   0.000005
    10  O    0.034420  -0.170479  -0.003379   0.000008  -0.107962  -0.004323
    11  H   -0.000425   0.002998   0.000006   0.000000   0.000629  -0.000002
    12  H    0.072460  -0.030955   0.060813   0.007163   0.002845   0.000000
    13  C   -0.038279  -0.072168  -0.006931  -0.000355  -0.003466  -0.000716
    14  C    0.073485  -0.047841  -0.001427   0.000268   0.002156  -0.000651
    15  C   -0.050228   0.073485   0.001824  -0.000032   0.005360   0.001000
    16  C    0.005360   0.002156   0.000536   0.000013   0.002484   0.000006
    17  H    0.001000  -0.000650   0.000038   0.000000   0.000006   0.000000
    18  C    0.001824  -0.001427   0.000088   0.000000   0.000536   0.000038
    19  H   -0.000032   0.000268   0.000000   0.000000   0.000013   0.000000
    20  C   -0.000602   0.000600  -0.000080   0.000000  -0.000186  -0.000002
    21  H   -0.000001   0.000001   0.000000   0.000000   0.000000   0.000000
    22  H    0.000000  -0.000001   0.000000   0.000000   0.000000   0.000000
    23  H    0.000000   0.000000   0.000000   0.000000   0.000000   0.000000
    24  C   -2.665822  -7.043963  -0.291732  -0.035373   1.915261  -0.013369
    25  C   25.782543 -13.130774  -4.670406   0.127517   0.883007  -0.045294
    26  C  -13.130774  31.471145   1.574344  -0.027566  -8.991518   0.116208
    27  C   -4.670406   1.574344   8.437503   0.117922  -0.012776   0.001928
    28  H    0.127517  -0.027566   0.117922   0.591348  -0.001175  -0.000119
    29  C    0.883007  -8.991518  -0.012776  -0.001175  12.619460   0.180322
    30  H   -0.045294   0.116208   0.001928  -0.000119   0.180322   0.528085
    31  C    0.090277   1.518564   0.547422  -0.014402  -0.595997  -0.023995
    32  H    0.084845   0.002074   0.210574  -0.006009  -0.004283   0.000013
    33  H   -0.003724  -0.004398   0.001268   0.000015   0.301063  -0.005362
    34  H    0.047791   0.050748  -0.023154  -0.000155  -0.035388  -0.000137
             31         32         33         34
     1  N   -0.014553   0.000573   0.000078   0.000002
     2  C    0.015848  -0.000075   0.000001  -0.000023
     3  C   -0.107639  -0.009079  -0.000721  -0.000585
     4  C   -0.088205  -0.002052   0.000493  -0.000622
     5  C   -0.054955   0.000272  -0.000123  -0.000070
     6  C   -0.006268  -0.000015  -0.000069  -0.000006
     7  C    0.016090  -0.000130  -0.002762   0.000032
     8  N    0.001068   0.000000  -0.000014   0.000000
     9  O   -0.000044   0.000000   0.000000   0.000000
    10  O   -0.007352  -0.000001   0.000216   0.000007
    11  H   -0.000016   0.000000   0.000000   0.000000
    12  H    0.001112  -0.000005   0.000000   0.000000
    13  C    0.000193   0.000002  -0.000001   0.000000
    14  C    0.000600  -0.000001   0.000001   0.000000
    15  C   -0.000602   0.000000  -0.000001   0.000000
    16  C   -0.000186   0.000000   0.000000   0.000000
    17  H   -0.000002   0.000000   0.000000   0.000000
    18  C   -0.000080   0.000000   0.000000   0.000000
    19  H    0.000000   0.000000   0.000000   0.000000
    20  C    0.000022   0.000000   0.000000   0.000000
    21  H    0.000000   0.000000   0.000000   0.000000
    22  H    0.000000   0.000000   0.000000   0.000000
    23  H    0.000000   0.000000   0.000000   0.000000
    24  C   -1.043960   0.013170   0.020745  -0.014842
    25  C    0.090277   0.084845  -0.003724   0.047791
    26  C    1.518564   0.002074  -0.004398   0.050748
    27  C    0.547422   0.210574   0.001268  -0.023154
    28  H   -0.014402  -0.006009   0.000015  -0.000155
    29  C   -0.595997  -0.004283   0.301063  -0.035388
    30  H   -0.023995   0.000013  -0.005362  -0.000137
    31  C    5.456234   0.024334   0.007354   0.293926
    32  H    0.024334   0.525951  -0.000140  -0.004746
    33  H    0.007354  -0.000140   0.522908  -0.004670
[...]
 58,-0.00081323,0.00000082,0.00007044,0.00009388,-0.00000128,-0.0006951
 0,-0.00008740,-0.00000117,-0.00062966,0.00014011,-0.00000063,0.0001566
 9,-0.00030577,-0.00000068,0.00030689,0.00024441,-0.00000165,-0.0001926
 2,-0.00017222,-0.00000003,0.00005906,-0.00000981,0.00000122,-0.0002119
 7,0.00027751,-0.00000007,0.00003080,-0.00000165,0.00000038,0.00000121,
 -0.00007493,-0.00000026,-0.00000742,0.00000967,0.00000026,-0.00001433,
 -0.00000489,0.00000040,-0.00000160,-0.00000409,0.00000030,0.03004169,0
 .00769748,-0.00000131,-0.01422617,-0.00526453,0.00000073,0.07372121,-0
 .13876866,-0.00000237,-0.00400818,-0.04759032,0.00000070,-0.00026315,0
 .00046682,-0.00000007,-0.03339142,0.74114006,0.00004592,-0.00000089,-0
 .00080606,-0.00004153,0.00006514,-0.00054797,-0.00003281,0.00002152,0.
 00674141,-0.00005310,-0.00001039,-0.00026446,-0.00001691,-0.00005077,-
 0.00027695,-0.00004174,0.00002863,0.00016993,-0.00002739,-0.00000389,-
 0.00000847,0.00003820,-0.00000720,-0.00015829,0.00003939,-0.00005064,0
 .00016643,0.00002636,-0.00001378,-0.00003643,0.00000503,0.00000756,0.0
 0001122,-0.00000086,-0.00000007,-0.00002038,0.00006793,0.00000670,-0.0
 0034112,-0.00000810,0.00002023,0.00056248,-0.00000718,-0.00001908,0.00
 013941,-0.00000117,0.00000447,-0.00026853,-0.00000311,-0.00000444,0.00
 001121,-0.00000306,0.00000683,-0.00008272,0.00000111,0.00000152,0.0000
 0819,-0.00001496,-0.00000591,0.00009990,0.00000204,-0.00000173,0.00000
 220,-0.00000163,-0.00000366,0.00000234,0.00000092,0.00000033,-0.000001
 90,0.00006793,-0.00000296,0.00738484,-0.00000239,-0.00002425,-0.004458
 24,0.00000969,0.00003238,-0.06257630,-0.00001539,0.00001210,0.00630500
 ,0.00000315,-0.00000086,-0.00105827,-0.00003273,-0.00000912,0.13202340
 ,-0.00004246,-0.00050187,-0.00000080,0.00006024,0.00069574,0.00000073,
 0.00317447,0.00133649,-0.00000119,-0.00073791,-0.00164448,-0.00000076,
 -0.00079994,-0.00075552,0.00000026,-0.00027294,0.00167786,-0.00000077,
 -0.00808381,0.00525710,0.00000052,0.00289130,-0.00162367,0.00000024,0.
 00018950,-0.00053192,-0.00000033,0.00029149,-0.00404921,-0.00000046,-0
 .00005411,0.00001995,0.00000053,0.00018885,0.00001050,0.00000077,0.000
 43715,-0.00021630,-0.00000030,-0.00014927,0.00021379,-0.00000049,-0.00
 016444,-0.00010958,0.,0.00015845,0.00005713,0.00000171,-0.00001398,0.0
 0000230,-0.00000046,0.00009836,-0.00011690,0.00000074,-0.00001827,-0.0
 0001266,-0.00000021,-0.00007420,0.00001321,-0.00000025,0.00000657,-0.0
 0000270,-0.00000015,0.00000394,0.00000160,-0.00000015,0.00000160,-0.00
 000154,-0.00000017,0.01114336,0.01171876,-0.00000042,-0.00014842,0.003
 73208,0.00000255,-0.18090904,-0.14183439,0.00001006,-0.00096251,0.0014
 6514,-0.00000164,0.00063382,0.00084329,0.00000014,-0.01360537,-0.02318
 309,-0.00000048,0.19119759,0.00006085,0.00016510,-0.00000078,-0.000141
 65,0.00027748,0.00000066,0.00008481,0.00086993,-0.00000009,0.00058365,
 -0.00105901,-0.00000132,-0.00038978,-0.00050424,-0.00000036,0.00005597
 ,0.00114713,0.00000039,-0.00114646,0.00328704,0.00000045,0.00161149,-0
 .00122189,0.00000006,0.00012529,-0.00018793,0.00000014,-0.00172616,-0.
 00428021,-0.00000002,-0.00001920,0.00005471,-0.00000016,-0.00011714,0.
 00004401,0.00000011,0.00010904,-0.00012317,-0.00000106,-0.00004274,0.0
 0004628,-0.00000046,-0.00002896,-0.00000159,-0.00000020,0.00004379,-0.
 00001110,0.00000147,0.00000144,-0.00001075,0.00000023,-0.00000157,0.00
 000680,0.00000035,-0.00000089,-0.00000568,0.00000012,-0.00004342,-0.00
 001873,-0.00000031,0.00000107,0.00000122,-0.00000002,-0.00000374,0.000
 00062,0.00000010,0.00000083,-0.00000086,-0.00000005,-0.01875499,-0.016
 39833,0.00000097,0.00400076,-0.00290936,0.00000201,-0.14086155,-0.2297
 6602,0.00001092,-0.00012738,0.00073539,-0.00000163,-0.00088487,-0.0006
 5337,0.00000025,0.00745049,0.01156519,-0.00000230,0.14731300,0.2382493
 4,-0.00000296,0.00000393,0.00014835,-0.00000118,0.00000184,0.00015782,
 0.00000450,-0.00000691,-0.00306603,0.00000106,0.00000319,-0.00008444,-
 0.00000680,0.00000672,-0.00029754,0.00000348,0.00000105,0.00019474,0.0
 0000848,0.00000235,0.00071654,-0.00000408,-0.00000022,0.00035838,-0.00
 000262,0.00000187,-0.00001081,-0.00000177,-0.00000143,-0.00157590,0.00
 000153,-0.00000013,0.00002460,0.00000115,-0.00000033,0.00005256,-0.000
 01647,-0.00000813,-0.00009285,-0.00000060,-0.00001340,0.00000596,0.000
 01164,0.00001562,0.00003011,0.00000766,0.00000272,-0.00000294,0.000000
 87,-0.00000106,0.00000104,-0.00000378,-0.00000477,-0.00001760,0.000001
 84,0.00000111,0.00000701,0.00000009,0.00000121,0.00000571,-0.00000086,
 -0.00000031,0.00000262,-0.00000076,0.00000022,0.00000216,-0.00000066,-
 0.00000111,0.00000183,-0.00000174,0.00001746,0.00250145,0.00000292,-0.
 00001848,0.00535119,0.00000479,-0.00000083,-0.04083321,0.00000053,0.00
 000321,-0.00108009,-0.00000109,-0.00000015,0.00120117,0.00000320,0.000
 00204,0.00667467,-0.00001054,-0.00001016,0.02778593,0.00158706,-0.0012
 4681,-0.00000655,-0.00122852,-0.00027622,0.00000257,-0.00093010,0.0009
 0106,-0.00000419,-0.00078636,-0.00101080,-0.00000903,-0.00057802,-0.00
 012033,0.00000283,0.00007043,0.00015610,0.00000068,-0.00003169,0.00089
 322,0.00000031,0.00025747,0.00025754,0.00000199,0.00063047,-0.00035922
 ,-0.00000014,0.00012568,-0.00065689,-0.00000082,-0.00001038,0.00000618
 ,0.00000059,0.00044145,-0.00006051,0.00000304,-0.00015953,0.00008186,-
 0.00000575,-0.00000973,-0.00006341,-0.00000617,0.00005655,0.00003428,-
 0.00000423,-0.00001019,-0.00000898,0.00001569,-0.00007766,-0.00004034,
 -0.00000002,-0.00003640,0.00007977,0.00000590,-0.00000162,-0.00000515,
 -0.00000045,-0.00003153,-0.00003481,-0.00000308,-0.00000655,0.00000223
 ,-0.00000060,0.00000003,0.00000086,0.00000004,0.00000525,0.00000366,-0
 .00000071,-0.00002054,-0.00815200,0.00000105,-0.00638758,0.03787954,0.
 00002158,-0.04459869,-0.01855922,0.00001101,-0.15006901,0.08879785,-0.
 00001382,-0.00616961,0.00103357,0.00000193,-0.21521015,-0.13113321,-0.
 00000865,-0.00500252,0.00243762,0.00000148,0.74179449,0.00268931,-0.00
 055854,-0.00000237,-0.00157363,-0.00072552,0.00000183,0.00007350,-0.00
 519458,-0.00000413,-0.00124740,-0.00063889,-0.00000132,-0.00033739,-0.
 00005071,0.00000254,0.00055148,0.00114636,-0.00000439,-0.00225291,0.00
 236646,0.00000035,0.00085133,-0.00083352,0.00000107,0.00040227,-0.0000
 1256,-0.00000188,0.00245645,-0.00093084,-0.00000173,0.00001705,0.00007
 465,0.00000280,0.00052829,0.00013346,0.00000343,-0.00020829,-0.0000274
 4,0.00000083,0.00004404,-0.00011221,-0.00000174,0.00010627,0.00010676,
 0.00000003,-0.00005079,-0.00008094,0.00000553,0.00001335,-0.00001589,-
 0.00000261,-0.00010136,0.00013645,0.00000301,0.00001441,-0.00000871,-0
 .00000127,-0.00002607,-0.00006144,-0.00000066,-0.00000241,0.00000723,-
 0.00000067,-0.00000892,0.00000050,-0.00000088,0.00000056,-0.00000127,-
 0.00000067,-0.01087517,-0.04302046,0.00000278,0.07768157,0.00675393,0.
 00000383,-0.05746855,0.04545103,0.00000422,0.02311963,-0.30363918,-0.0
 0000154,-0.00012340,0.00120882,0.00000043,-0.06493794,-0.25098298,0.00
 000096,0.00140832,-0.00056876,-0.00000186,-0.01168846,0.65473278,-0.00
 002430,0.00000079,-0.00010546,0.00002211,-0.00003435,0.00015013,0.0000
 1654,-0.00001160,-0.00084803,0.00002789,0.00000559,0.00003154,0.000008
 45,0.00002702,0.00026630,0.00002135,-0.00001524,-0.00004050,0.00001507
 ,0.00000214,0.00001717,-0.00002027,0.00000399,0.00004467,-0.00002081,0
 .00002679,-0.00004666,-0.00001385,0.00000721,-0.00007049,-0.00000254,-
 0.00000396,-0.00000333,0.00000056,0.00000006,0.00005535,-0.00003553,-0
 .00000391,0.00014378,0.00000406,-0.00001085,-0.00023519,0.00000409,0.0
 0001042,-0.00006965,0.00000126,-0.00000203,0.00010112,0.00000161,0.000
 00223,0.00000004,0.00000140,-0.00000386,0.00003875,-0.00000048,-0.0000
 0074,-0.00000327,0.00000759,0.00000304,-0.00003927,-0.00000113,0.00000
 094,0.,0.00000083,0.00000193,-0.00000115,-0.00000050,-0.00000023,-0.00
 000047,-0.00003461,0.00000185,-0.00752310,0.00000153,0.00001013,0.0055
 7945,0.00000440,-0.00001669,0.00517508,0.00001043,-0.00000470,-0.06365
 922,-0.00000102,0.00000056,0.00809817,0.00001258,0.00000990,-0.0631801
 9,0.00000147,0.00000094,0.00788107,-0.00001900,-0.00000585,0.14355203,
 -0.00000316,0.00001368,0.00000028,0.00004018,-0.00001898,0.00000001,-0
 .00032018,-0.00147570,0.00000045,-0.00038437,0.00017597,0.00000027,-0.
 00011303,-0.00014147,-0.00000043,0.00004480,0.00009238,0.00000018,-0.0
 0006198,0.00020135,0.00000014,0.00001140,-0.00005498,-0.00000016,-0.00
 002900,0.00005579,0.00000010,0.00008147,-0.00011180,0.00000008,-0.0000
 0164,0.00000949,-0.00000016,-0.00007994,-0.00005717,-0.00000026,-0.000
 05562,-0.00000619,0.00000005,0.00001068,-0.00003015,0.00000036,0.00002
 401,0.00002625,0.00000029,-0.00001172,-0.00001329,-0.00000083,0.000003
 48,-0.00000434,0.00000013,-0.00002310,0.00002468,-0.00000040,0.0000033
 4,0.00000053,0.00000010,-0.00000349,-0.00001065,0.00000015,-0.00000181
 ,0.00000093,0.00000005,-0.00000198,-0.00000029,0.00000005,-0.00000019,
 -0.00000069,0.00000005,-0.00426974,0.00274175,0.00000033,-0.01585382,-
 0.02402943,0.00000025,-0.00029216,0.00079234,-0.00000033,-0.18291378,-
 0.14216390,0.00001045,0.00098890,-0.00007135,-0.00000030,-0.00018201,0
 .00280607,0.00000116,0.00003842,-0.00010021,0.00000003,0.01154851,0.01
 022607,-0.00000103,0.19067634,-0.00008467,0.00003463,-0.00000041,0.000
 01916,0.00003726,-0.00000027,0.00038388,0.00051775,0.00000255,0.000135
 88,-0.00009745,-0.00000248,-0.00001379,0.00000538,-0.00000169,0.000020
 64,0.00000941,0.00000418,0.00002630,-0.00004411,0.00000027,0.00000922,
 0.00001426,-0.00000031,0.00000589,-0.00002471,0.00000167,-0.00003099,0
 .00000318,0.00000114,0.00000484,0.00000323,-0.00000234,0.00002591,0.00
 001282,-0.00000210,0.00000402,0.00001260,-0.00000310,0.00000197,-0.000
 00116,-0.00000050,0.00000675,-0.00000294,-0.00000119,-0.00000674,-0.00
 000304,0.00000057,0.00000009,-0.00000073,0.00000240,-0.00000595,0.0000
 1100,-0.00000081,0.00000109,0.00000009,0.00000107,-0.00000490,-0.00000
 334,-0.00000048,0.00000081,-0.00000003,0.00000040,-0.00000051,-0.00000
 137,0.00000085,0.00000040,0.00000025,0.00000034,0.00216646,0.00065310,
 -0.00000130,0.00686902,0.00922734,0.00000049,0.00099240,-0.00020014,0.
 00000119,-0.14262853,-0.22353844,0.00000888,-0.00013117,0.00090647,0.0
 0000012,0.00322489,-0.00411777,-0.00000169,-0.00006913,0.00006281,0.00
 000211,-0.02079347,-0.01703949,0.00000239,0.15087312,0.23332281,-0.000
 00177,-0.00000066,0.00003959,0.00000223,-0.00000350,-0.00002464,0.0000
 0094,0.00000016,0.00064269,0.00000246,0.,-0.00056099,0.00000207,0.0000
 0135,0.00001312,0.00000153,-0.00000161,0.00004534,-0.00000005,-0.00000
 027,0.00001004,-0.00000123,0.00000039,0.00000752,-0.00000151,0.0000021
 7,-0.00000599,-0.00000104,0.00000099,0.00000023,-0.00000052,-0.0000003
 6,0.00001329,-0.00000015,0.00000006,0.00007268,-0.00000064,0.00000108,
 -0.00000380,0.00000052,0.00000125,0.00000055,-0.00000164,-0.00000169,-
 0.00000793,-0.00000128,-0.00000071,0.00000051,0.00000001,0.00000041,0.
 00000211,0.00000082,0.00000047,0.00000102,-0.00000038,-0.00000027,0.00
 000132,0.00000076,0.00000010,0.00000021,0.00000005,0.00000013,0.000001
 59,0.00000021,0.00000014,0.00000171,0.00000007,0.00000018,0.00000021,-
 0.00000263,-0.00000305,0.00802086,0.00000066,0.00000553,0.00359845,0.0
 0000081,0.00000020,-0.00079827,0.00001016,0.00000935,-0.03885845,-0.00
 000023,-0.00000006,-0.00459082,0.00000019,-0.00000013,0.00644832,0.000
 00010,0.00000004,-0.00092791,0.00000079,0.00000046,0.00372947,-0.00001
 084,-0.00001144,0.02655755,-0.00063827,-0.00006000,-0.00000034,0.00016
 843,0.00021826,-0.00000021,0.00030108,0.00167136,0.00000042,-0.0001012
 4,-0.00014792,-0.00000097,-0.00011928,-0.00015758,-0.00000007,0.000024
 77,0.00019990,0.00000120,-0.00027660,0.00047180,-0.00000006,0.00016730
 ,-0.00016939,0.00000004,-0.00009606,-0.00001220,0.00000045,0.00024430,
 -0.00034771,0.00000028,-0.00000675,0.00001627,-0.00000060,-0.00002270,
 -0.00002451,-0.00000041,0.00000187,-0.00001292,-0.00000098,-0.00000282
 ,-0.00000018,-0.00000050,0.00000059,0.00000655,-0.00000069,-0.00000016
 ,-0.00000765,0.00000095,0.00000600,0.00000057,0.00000062,-0.00000576,0
 .00000826,0.00000014,0.00000112,-0.00000164,0.00000022,-0.00001007,-0.
 00000331,-0.00000029,-0.00000008,0.00000047,0.00000008,-0.00000173,-0.
 00000019,0.00000022,0.00000017,-0.00000028,0.00000006,-0.00528581,-0.0
 0024697,0.00000048,-0.00088155,-0.00050832,0.00000135,-0.00656821,0.03
 035315,0.00000056,-0.00273719,-0.00335551,-0.00000073,0.00012541,0.000
 06581,0.00000004,-0.09007006,0.08869908,-0.00000044,0.00109582,0.00000
 094,0.00000033,0.01107611,-0.02166422,0.00000076,0.00045070,-0.0010593
 3,-0.00000003,0.09233740,0.00001067,-0.00000063,0.00000174,-0.00002155
 ,0.00001825,-0.00000021,-0.00024541,0.00001859,0.00000259,0.00003047,0
 .00004523,0.00000159,0.00004485,0.00002363,-0.00000232,-0.00006341,-0.
 00004877,0.00000129,0.00003582,-0.00004227,0.00000055,-0.00000643,0.00
 001040,-0.00000088,0.00000988,-0.00001488,0.00000069,0.00001453,0.0000
 2745,0.00000062,-0.00000259,-0.00000257,-0.00000110,-0.00000348,0.0000
 0438,-0.00000182,0.00003925,-0.00001347,0.00000031,-0.00001025,0.00001
 277,0.00000201,-0.00001196,-0.00000511,0.00000137,0.00001722,0.0000133
 3,-0.00000492,-0.00000258,-0.00000027,0.00000099,0.00001178,-0.0000216
 6,-0.00000244,-0.00000053,0.00000137,0.00000067,-0.00000094,0.00000658
 ,0.00000083,0.00000011,-0.00000154,0.00000034,0.00000005,-0.00000015,0
 .00000035,-0.00000035,-0.00000062,0.00000033,0.00018737,0.00165300,-0.
 00000127,-0.00065718,0.00039633,-0.00000672,-0.00015218,-0.00004832,-0
 .00000180,-0.00371033,-0.00145584,0.00000514,0.00006202,-0.00002247,-0
 .00000029,0.08885873,-0.31636423,0.00000564,-0.00002627,0.00072388,0.0
 0000050,0.00933760,-0.01676241,-0.00000276,0.00055196,-0.00077508,-0.0
 0000037,-0.09432193,0.33174192,-0.00000102,-0.00000025,-0.00040651,0.0
 0000119,-0.00000211,-0.00015387,0.00000054,-0.00000018,0.00071790,0.00
 000140,-0.00000002,0.00004283,0.00000071,0.00000109,0.00001802,0.00000
 088,-0.00000081,0.00000799,0.00000021,0.00000005,0.00003062,-0.0000007
 2,0.00000022,-0.00001999,-0.00000092,0.00000137,0.00004928,-0.00000058
 ,0.00000040,-0.00001997,-0.00000023,-0.00000021,0.00001407,0.,0.000000
 06,0.00003187,-0.00000078,0.00000031,0.00000296,0.00000023,0.00000027,
 -0.00000449,-0.00000049,-0.00000044,-0.00000342,-0.00000036,-0.0000002
 6,0.00000110,0.00000003,0.00000018,0.00000231,0.00000026,0.00000009,-0
 .00000109,-0.00000013,-0.00000011,0.00000302,0.00000035,0.00000005,0.0
 0000072,-0.00000001,0.00000009,0.00000115,0.00000009,0.00000009,0.0000
 0160,0.00000002,0.00000005,0.00000056,-0.00000097,-0.00000084,0.007754
 90,-0.00000004,0.00000173,-0.00068080,0.00000075,-0.00000161,0.0034277
 9,0.00000085,-0.00000015,0.00696643,-0.00000008,0.00000002,-0.00106682
 ,0.00000104,0.00000043,-0.03932880,-0.00000020,-0.00000007,-0.00439053
 ,-0.00000009,0.00000161,0.00378613,-0.00000006,-0.00000002,0.00002932,
 -0.00000151,-0.00000087,0.02691663,-0.00000539,-0.00004137,0.00000133,
 0.00004009,-0.00002681,-0.00000007,-0.00021233,0.00008030,0.00000187,0
 .00001768,0.00006696,0.00000117,0.00003082,-0.00000010,-0.00000172,0.0
 0000587,-0.00005921,0.00000072,0.00017908,-0.00017894,0.00000049,-0.00
 009132,0.00003459,-0.00000061,-0.00002320,0.00002365,0.00000045,-0.000
 22895,0.00004689,0.00000044,0.00000236,0.00000220,-0.00000070,0.000038
 37,-0.00001189,-0.00000128,-0.00001561,-0.00000011,0.00000037,0.000004
 67,-0.00001304,0.00000160,0.00000865,0.00001065,0.00000110,-0.00000115
 ,-0.00000023,-0.00000372,0.00000190,-0.00000025,0.00000063,-0.00000404
 ,-0.00000088,-0.00000185,0.00000175,0.00000143,0.00000046,0.00000335,0
 .00000111,0.00000066,-0.00000028,-0.00000043,0.00000024,-0.00000086,-0
 .00000019,0.00000022,-0.00000056,-0.00000046,0.00000022,0.00094869,-0.
 00038081,-0.00000104,0.00108238,0.00137713,-0.00000485,-0.00102776,-0.
 00333925,-0.00000106,-0.00422674,-0.00066112,0.00000418,-0.00026697,-0
 .00012177,-0.00000023,-0.01361310,0.00602258,0.00000481,-0.00057169,0.
 00050972,0.00000033,-0.33623720,0.05238297,0.00001111,0.00068045,0.000
 05645,-0.00000046,0.00082326,0.00002509,-0.00000035,0.35265781,0.00011
 577,0.00008117,-0.00000029,-0.00013684,0.00003541,-0.00000046,0.000110
 68,-0.00011909,0.00000259,0.00003293,-0.00000031,-0.00000230,0.0000348
 8,0.00002884,-0.00000155,0.00000517,-0.00000589,0.00000421,0.00012882,
 -0.00013067,0.00000015,-0.00002927,0.00003605,-0.00000031,0.00003516,-
 0.00001392,0.00000168,-0.00018761,-0.00001334,0.00000118,0.00000302,0.
 00000732,-0.00000236,-0.00014240,0.00003304,-0.00000215,0.00000071,0.0
 0001194,-0.00000295,0.00000344,-0.00000443,-0.00000049,0.00000654,-0.0
 0000047,-0.00000128,-0.00000734,-0.00000279,0.00000041,-0.00000293,-0.
 00000244,0.00000241,-0.00000715,0.00001154,-0.00000085,0.00000127,0.00
 000049,0.00000106,-0.00000413,-0.00000428,-0.00000046,0.00000018,-0.00
 000020,0.00000041,-0.00000092,-0.00000108,0.00000085,0.00000047,0.0000
 0031,0.00000036,-0.00043301,-0.00096287,-0.00000123,0.00149326,-0.0054
 1195,0.00000084,-0.00353828,-0.00372539,0.00000141,0.02990057,-0.00047
 929,-0.00000264,0.00153229,-0.00026826,0.00000010,-0.02441788,0.009380
 94,-0.00000039,-0.00108703,0.00048405,0.00000215,0.05230685,-0.0708520
 9,-0.00000112,-0.00030175,0.00101541,-0.00000035,0.00038936,0.00088321
 ,-0.00000017,-0.05580486,0.06998901,0.00000374,-0.00000060,0.00019339,
 -0.00000296,0.00000444,-0.00000317,-0.00000286,0.00000244,-0.00110835,
 -0.00000395,-0.00000121,0.00008184,-0.00000047,-0.00000446,-0.00003083
 ,-0.00000331,0.00000205,-0.00000502,-0.00000312,-0.00000050,0.00005439
 ,0.00000333,-0.00000055,-0.00000347,0.00000317,-0.00000388,-0.00002380
 ,0.00000216,-0.00000088,-0.00001724,0.00000017,0.00000055,0.00000277,-
 0.00000019,0.00000005,0.00010173,0.00000678,0.00000149,-0.00000413,-0.
 00000049,0.00000302,0.00000854,-0.00000188,-0.00000322,-0.00000225,-0.
 00000105,-0.00000004,-0.00000252,-0.00000032,-0.00000018,0.00000240,0.
 00000022,0.00000109,0.00000127,-0.00000014,-0.00000003,0.00000099,-0.0
 0000106,-0.00000057,-0.00000003,0.00000025,-0.00000008,0.00000070,-0.0
 0000002,-0.00000029,0.00000052,0.00000015,0.00000016,0.00000066,0.0000
 0487,-0.00000210,-0.00095494,-0.00000037,0.00000061,0.00675764,0.00000
 078,0.00000387,0.00734067,-0.00000100,0.00000045,0.00619189,0.00000033
 ,-0.00000004,-0.00054751,0.00000052,-0.00000051,0.00666414,-0.00000008
 ,-0.00000022,-0.00072508,0.00001181,-0.00000215,-0.04282428,-0.0000001
 5,-0.00000047,-0.00345891,-0.00000038,0.00000020,-0.00373088,-0.000014
 46,0.00000154,0.02603886||-0.00017744,0.00002929,-0.00000276,0.0001087
 3,0.00009547,0.00000962,0.00012391,-0.00006051,-0.00000102,-0.00001395
 ,0.00009290,-0.00000233,0.00001392,-0.00009292,-0.00000242,-0.00012387
 ,0.00006056,-0.00000129,-0.00010881,-0.00009541,0.00000879,0.00017751,
 -0.00002936,-0.00000263,-0.00003856,-0.00002098,-0.00000306,0.00003850
 ,0.00002090,-0.00000280,-0.00001157,0.00000876,-0.00000003,0.00001158,
 -0.00000874,-0.00000025,0.00004148,0.00001434,0.,-0.00005035,-0.000008
 34,0.00000014,-0.00004496,0.00000125,0.00000012,0.00003172,-0.00001100
 ,-0.00000005,0.00001828,0.00001066,-0.00000002,0.00002107,-0.00001090,
 0.,0.00001598,-0.00000703,-0.00000009,-0.00001096,-0.00000019,0.000000
 02,0.00000211,0.00000526,0.,0.00000089,-0.00000789,-0.00000003,0.00000
 409,-0.00000505,0.,-0.00004148,-0.00001430,0.00000006,0.00004495,-0.00
 000124,0.00000009,0.00005037,0.00000830,0.00000010,-0.00002108,0.00001
 090,0.,-0.00001601,0.00000705,-0.00000008,-0.00003170,0.00001101,-0.00
 000004,-0.00001820,-0.00001063,-0.00000003,0.00001095,0.00000017,0.000
 00002,-0.00000089,0.00000789,-0.00000002,-0.00000210,-0.00000527,-0.00
 000003,-0.00000408,0.00000505,0.|||@


 REALITY IS FOR PEOPLE WHO CAN'T FACE SCIENCE FICTION.
 Job cpu time:  0 days  3 hours  4 minutes 38.0 seconds.
 File lengths (MBytes):  RWF=   1373 Int=      0 D2E=      0 Chk=     20 Scr=      1
 Normal termination of Gaussian 09 at Thu Jul 13 12:17:17 2023.
