 Entering Link 1 = C:\G09W\l1.exe PID=      8524.
  
 Copyright (c) 1988,1990,1992,1993,1995,1998,2003,2009,2010,
            Gaussian, Inc.  All Rights Reserved.
  
 This is part of the Gaussian(R) 09 program.  It is based on
 the Gaussian(R) 03 system (copyright 2003, Gaussian, Inc.),
 the Gaussian(R) 98 system (copyright 1998, Gaussian, Inc.),
 the Gaussian(R) 94 system (copyright 1995, Gaussian, Inc.),
 the Gaussian 92(TM) system (copyright 1992, Gaussian, Inc.),
 the Gaussian 90(TM) system (copyright 1990, Gaussian, Inc.),
 the Gaussian 88(TM) system (copyright 1988, Gaussian, Inc.),
 the Gaussian 86(TM) system (copyright 1986, Carnegie Mellon
 University), and the Gaussian 82(TM) system (copyright 1983,
 Carnegie Mellon University). Gaussian is a federally registered
 trademark of Gaussian, Inc.
  
 This software contains proprietary and confidential information,
 including trade secrets, belonging to Gaussian, Inc.
  
 This software is provided under written license and may be
 used, copied, transmitted, or stored only in accord with that
 written license.
  
 The following legend is applicable only to US Government
 contracts under FAR:
  
                    RESTRICTED RIGHTS LEGEND
  
 Use, reproduction and disclosure by the US Government is
 subject to restrictions as set forth in subparagraphs (a)
 and (c) of the Commercial Computer Software - Restricted
 Rights clause in FAR 52.227-19.
  
 Gaussian, Inc.
 340 Quinnipiac St., Bldg. 40, Wallingford CT 06492
  
  
 ---------------------------------------------------------------
 Warning -- This program may not be used in any manner that
 competes with the business of Gaussian, Inc. or will provide
 assistance to any competitor of Gaussian, Inc.  The licensee
 of this program is prohibited from giving any competitor of
 Gaussian, Inc. access to this program.  By using this program,
 the user acknowledges that Gaussian, Inc. is engaged in the
 business of creating and licensing software in the field of
 computational chemistry and represents and warrants to the
 licensee that it is not a competitor of Gaussian, Inc. and that
 it will not use this program in any manner prohibited above.
 ---------------------------------------------------------------
  

 Cite this work as:
 Gaussian 09, Revision B.01,
 M. J. Frisch, G. W. Trucks, H. B. Schlegel, G. E. Scuseria, 
 M. A. Robb, J. R. Cheeseman, G. Scalmani, V. Barone, B. Mennucci, 
 G. A. Petersson, H. Nakatsuji, M. Caricato, X. Li, H. P. Hratchian, 
 A. F. Izmaylov, J. Bloino, G. Zheng, J. L. Sonnenberg, M. Hada, 
 M. Ehara, K. Toyota, R. Fukuda, J. Hasegawa, M. Ishida, T. Nakajima, 
 Y. Honda, O. Kitao, H. Nakai, T. Vreven, J. A. Montgomery, Jr., 
 J. E. Peralta, F. Ogliaro, M. Bearpark, J. J. Heyd, E. Brothers, 
 K. N. Kudin, V. N. Staroverov, T. Keith, R. Kobayashi, J. Normand, 
 K. Raghavachari, A. Rendell, J. C. Burant, S. S. Iyengar, J. Tomasi, 
 M. Cossi, N. Rega, J. M. Millam, M. Klene, J. E. Knox, J. B. Cross, 
 V. Bakken, C. Adamo, J. Jaramillo, R. Gomperts, R. E. Stratmann, 
 O. Yazyev, A. J. Austin, R. Cammi, C. Pomelli, J. W. Ochterski, 
 R. L. Martin, K. Morokuma, V. G. Zakrzewski, G. A. Voth, 
 P. Salvador, J. J. Dannenberg, S. Dapprich, A. D. Daniels, 
 O. Farkas, J. B. Foresman, J. V. Ortiz, J. Cioslowski, 
 and D. J. Fox, Gaussian, Inc., Wallingford CT, 2010.
 
 ******************************************
 Gaussian 09:  IA32W-G09RevB.01 12-Aug-2010
                12-Jul-2023 
 ******************************************
 %nprocshared=6
 Will use up to    6 processors via shared memory.
 %chk=G:\Meu Drive\POS-DOC-IME\SUBSTITUINTES-DOADORES\DPP-substituido\DPP-SUB-1-T
 D-DFT.chk
 ---------------------------------------------------------
 # td=(nstates=10) cam-b3lyp/6-31+g(d,p) geom=connectivity
 ---------------------------------------------------------
 1/38=1,57=2/1;
 2/12=2,17=6,18=5,40=1/2;
 3/5=1,6=6,7=111,11=2,16=1,25=1,30=1,74=-40/1,2,8,3;
 4//1;
 5/5=2,38=5/2;
 8/6=1,10=2,108=10/1;
 9/41=10,42=1/14;
 6/7=2,8=2,9=2,10=2/1;
 99/5=1,9=1/99;
 -------------------
 Title Card Required
 -------------------
 Symbolic Z-matrix:
 Charge =  0 Multiplicity = 1
 N                     1.13958   1.7842    0.00001 
 C                    -0.27772   1.79357   0.00004 
 C                     1.68564   0.50503  -0.00004 
 C                     0.61261  -0.37423  -0.00004 
 C                    -0.61261   0.37424   0.00002 
 C                    -1.68564  -0.50503   0.00003 
 C                     0.27772  -1.79357  -0.00007 
 N                    -1.13958  -1.78419  -0.00004 
 O                    -0.94648   2.82339   0.00009 
 O                     0.94649  -2.82338  -0.00013 
 H                    -1.65766  -2.64935   0.00002 
 H                     1.65766   2.64936  -0.00002 
 C                    -3.12324  -0.26657   0.00008 
 C                    -3.61291   1.05742   0.0002 
 C                    -4.04904  -1.33073   0.00002 
 C                    -4.985     1.29774   0.00026 
 H                    -2.91401   1.88874   0.00025 
 C                    -5.41927  -1.08081   0.00007 
 H                    -3.71245  -2.36292  -0.00009 
 C                    -5.89351   0.23465   0.0002 
 H                    -5.3453    2.32207   0.00035 
 H                    -6.11675  -1.91303   0.00002 
 H                    -6.96214   0.42798   0.00024 
 C                     3.12324   0.26657  -0.00008 
 C                     4.04905   1.33072  -0.00022 
 C                     3.6129   -1.05742   0.00002 
 C                     5.41928   1.0808   -0.00025 
 H                     3.71246   2.36292  -0.00029 
 C                     4.98499  -1.29775  -0.00002 
 H                     2.914    -1.88874   0.00015 
 C                     5.89351  -0.23466  -0.00016 
 H                     6.11676   1.91301  -0.00035 
 H                     5.34529  -2.32208   0.00007 
 H                     6.96213  -0.428    -0.00018 
 
                          Input orientation:                          
 ---------------------------------------------------------------------
 Center     Atomic      Atomic             Coordinates (Angstroms)
 Number     Number       Type             X           Y           Z
 ---------------------------------------------------------------------
      1          7           0        1.139583    1.784197    0.000007
      2          6           0       -0.277719    1.793573    0.000040
      3          6           0        1.685644    0.505034   -0.000042
      4          6           0        0.612608   -0.374229   -0.000038
      5          6           0       -0.612608    0.374235    0.000021
      6          6           0       -1.685644   -0.505029    0.000032
      7          6           0        0.277720   -1.793567   -0.000073
      8          7           0       -1.139581   -1.784192   -0.000038
      9          8           0       -0.946483    2.823388    0.000085
     10          8           0        0.946486   -2.823381   -0.000129
     11          1           0       -1.657661   -2.649354    0.000017
     12          1           0        1.657663    2.649360   -0.000022
     13          6           0       -3.123243   -0.266572    0.000083
     14          6           0       -3.612910    1.057418    0.000203
     15          6           0       -4.049042   -1.330726    0.000016
     16          6           0       -4.984997    1.297741    0.000258
     17          1           0       -2.914013    1.888741    0.000250
     18          6           0       -5.419273   -1.080813    0.000072
     19          1           0       -3.712449   -2.362920   -0.000087
     20          6           0       -5.893508    0.234650    0.000195
     21          1           0       -5.345299    2.322073    0.000351
     22          1           0       -6.116751   -1.913026    0.000018
     23          1           0       -6.962138    0.427983    0.000239
     24          6           0        3.123243    0.266574   -0.000082
     25          6           0        4.049046    1.330723   -0.000216
     26          6           0        3.612903   -1.057419    0.000022
     27          6           0        5.419277    1.080803   -0.000252
     28          1           0        3.712460    2.362919   -0.000285
     29          6           0        4.984989   -1.297748   -0.000016
     30          1           0        2.914002   -1.888738    0.000145
     31          6           0        5.893505   -0.234661   -0.000155
     32          1           0        6.116758    1.913014   -0.000354
     33          1           0        5.345287   -2.322082    0.000067
     34          1           0        6.962134   -0.428000   -0.000182
 ---------------------------------------------------------------------
                    Distance matrix (angstroms):
                    1          2          3          4          5
     1  N    0.000000
     2  C    1.417333   0.000000
     3  C    1.390842   2.348431   0.000000
     4  C    2.221825   2.343512   1.387267   0.000000
     5  C    2.249037   1.458311   2.301971   1.435741   0.000000
     6  C    3.636271   2.695519   3.519348   2.301971   1.387268
     7  C    3.680109   3.629888   2.695518   1.458311   2.343512
     8  N    4.234146   3.680110   3.636269   2.249036   2.221825
     9  O    2.330577   1.227911   3.507543   3.557460   2.471806
    10  O    4.611622   4.776499   3.409502   2.471805   3.557460
    11  H    5.242227   4.652294   4.596504   3.214081   3.199098
    12  H    1.008421   2.116146   2.144509   3.199098   3.214082
    13  C    4.730469   3.513005   4.870397   3.737402   2.591124
    14  C    4.807743   3.415468   5.327270   4.461459   3.077101
    15  C    6.051824   4.897359   6.021349   4.758767   3.836140
    16  C    6.143868   4.733320   6.717577   5.841974   4.468853
    17  H    4.054944   2.638011   4.803279   4.190237   2.755031
    18  C    7.157295   5.890473   7.279750   6.073125   5.022071
    19  H    6.382852   5.392013   6.112656   4.760358   4.135339
    20  C    7.201768   5.828150   7.583973   6.534545   5.282744
    21  H    6.507150   5.095064   7.261941   6.539625   5.117855
    22  H    8.143945   6.916153   8.168499   6.903055   5.960466
    23  H    8.214451   6.822484   8.648125   7.617107   6.349757
    24  C    2.497616   3.728038   1.457242   2.591123   3.737402
    25  C    2.944591   4.351451   2.503484   3.836140   4.758770
    26  C    3.767239   4.823390   2.481045   3.077096   4.461455
    27  C    4.337112   5.741411   3.777767   5.022070   6.073127
    28  H    2.637160   4.030593   2.749494   4.135343   4.760365
    29  C    4.928035   6.103471   3.759747   4.468848   5.841971
    30  H    4.079095   4.873038   2.690540   2.755023   4.190230
    31  C    5.164839   6.495979   4.272381   5.282741   6.534544
    32  H    4.978842   6.395592   4.649428   5.960465   6.903058
    33  H    5.877880   6.968272   4.624454   5.117849   6.539621
    34  H    6.228637   7.573035   5.358349   6.349754   7.617106
                    6          7          8          9         10
     6  C    0.000000
     7  C    2.348431   0.000000
     8  N    1.390842   1.417332   0.000000
     9  O    3.409504   4.776499   4.611624   0.000000
    10  O    3.507544   1.227911   2.330577   5.955613   0.000000
    11  H    2.144508   2.116145   1.008421   5.518757   2.609955
    12  H    4.596506   4.652294   5.242228   2.609954   5.518756
    13  C    1.457241   3.728037   2.497616   3.779701   4.806242
    14  C    2.481047   4.823393   3.767241   3.198200   5.987378
    15  C    2.503483   4.351447   2.944587   5.184837   5.213762
    16  C    3.759749   6.103472   4.928036   4.317082   7.222613
    17  H    2.690544   4.873043   4.079099   2.178242   6.091596
    18  C    3.777766   5.741406   4.337108   5.937056   6.599957
    19  H    2.749490   4.030585   2.637153   5.877785   4.681634
    20  C    4.272382   6.495977   5.164837   5.583424   7.492468
    21  H    4.624455   6.968273   5.877880   4.427290   8.127869
    22  H    4.649426   6.395587   4.978837   7.011796   7.121662
    23  H    5.358349   7.573033   6.228635   6.475034   8.550889
    24  C    4.870397   3.513002   4.730466   4.806243   3.779695
    25  C    6.021350   4.897355   6.051822   5.213766   5.184830
    26  C    5.327263   3.415459   4.807734   5.987375   3.198187
    27  C    7.279750   5.890468   7.157291   6.599962   5.937046
    28  H    6.112663   5.392014   6.382855   4.681643   5.877782
    29  C    6.717570   4.733309   6.143858   7.222612   4.317066
    30  H    4.803269   2.637999   4.054931   6.091591   2.178228
    31  C    7.583970   5.828141   7.201760   7.492470   5.583410
    32  H    8.168501   6.916148   8.143942   7.121668   7.011787
    33  H    7.261933   5.095053   6.507138   8.127868   4.427274
    34  H    8.648121   6.822475   8.214441   8.550892   6.475019
                   11         12         13         14         15
    11  H    0.000000
    12  H    6.250419   0.000000
    13  C    2.797424   5.599975   0.000000
    14  C    4.190842   5.505744   1.411639   0.000000
    15  C    2.730839   6.957555   1.410506   2.427641   0.000000
    16  C    5.162434   6.778776   2.431708   1.392974   2.790135
    17  H    4.708792   4.634519   2.165445   1.086073   3.413687
    18  C    4.075542   7.999826   2.436133   2.799103   1.392835
    19  H    2.074656   7.345819   2.177576   3.421786   1.085688
    20  C    5.124439   7.927863   2.815243   2.424474   2.419185
    21  H    6.189811   7.010606   3.411542   2.144883   3.875980
    22  H    4.519476   9.014260   3.416416   3.884940   2.148137
    23  H    6.132494   8.901432   3.901221   3.407861   3.402820
    24  C    5.599971   2.797426   6.269197   6.782418   7.347996
    25  C    6.957551   2.730845   7.347998   7.666829   8.524221
    26  C    5.505734   4.190844   6.782411   7.528938   7.666818
    27  C    7.999820   4.075550   8.648125   9.032217   9.770596
    28  H    7.345821   2.074666   7.324006   7.440792   8.595576
    29  C    6.778764   5.162437   8.173540   8.914633   9.034091
    30  H    4.634505   4.708792   6.251380   7.161035   6.985368
    31  C    7.927853   5.124445   9.016804   9.593821  10.002780
    32  H    9.014255   4.519484   9.493588   9.767215  10.670770
    33  H    7.010591   6.189815   8.714420   9.574462   9.446492
    34  H    8.901420   6.132500  10.086669  10.678859  11.048118
                   16         17         18         19         20
    16  C    0.000000
    17  H    2.153661   0.000000
    18  C    2.417874   3.885174   0.000000
    19  H    3.875541   4.325982   2.134724   0.000000
    20  C    1.398411   3.407845   1.398335   3.391812   0.000000
    21  H    1.085852   2.469601   3.403690   4.961387   2.158209
    22  H    3.404393   4.971012   1.085843   2.446032   2.159247
    23  H    2.159992   4.303618   2.157985   4.283645   1.085978
    24  C    8.173546   6.251391   8.648123   7.323996   9.016808
    25  C    9.034103   6.985383   9.770597   8.595569  10.002787
    26  C    8.914632   7.161040   9.032206   7.440774   9.593815
    27  C   10.406535   8.372364  11.052002   9.759490  11.344385
    28  H    8.762440   6.643417   9.759500   8.801297   9.838910
    29  C   10.302290   8.517508  10.406523   8.762421  10.985897
    30  H    8.517502   6.945150   8.372348   6.643395   9.059857
    31  C   10.985903   9.059868  11.344378   9.838894  11.796352
    32  H   11.118792   9.030804  11.918180  10.718998  12.126970
    33  H   10.946136   9.270764  10.835889   9.057828  11.525944
    34  H   12.071128  10.144238  12.398605  10.848532  12.872709
                   21         22         23         24         25
    21  H    0.000000
    22  H    4.304788   0.000000
    23  H    2.490330   2.488976   0.000000
    24  C    8.714429   9.493584  10.086673   0.000000
    25  C    9.446507  10.670770  11.048127   1.410505   0.000000
    26  C    9.574463   9.767202  10.678853   1.411639   2.427641
    27  C   10.835906  11.918177  12.398613   2.436132   1.392836
    28  H    9.057851  10.719006  10.848549   2.177576   1.085688
    29  C   10.946139  11.118777  12.071122   2.431708   2.790134
    30  H    9.270760   9.030786  10.144227   2.165445   3.413686
    31  C   11.525954  12.126960  12.872710   2.815242   2.419185
    32  H   11.469354  12.817852  13.162934   3.416416   2.148138
    33  H   11.655763  11.469335  12.610930   3.411542   3.875981
    34  H   12.610940  13.162923  13.950558   3.901220   3.402821
                   26         27         28         29         30
    26  C    0.000000
    27  C    2.799104   0.000000
    28  H    3.421787   2.134724   0.000000
    29  C    1.392975   2.417873   3.875540   0.000000
    30  H    1.086073   3.885174   4.325982   2.153661   0.000000
    31  C    2.424474   1.398334   3.391811   1.398412   3.407845
    32  H    3.884940   1.085843   2.446030   3.404393   4.971012
    33  H    2.144884   3.403689   4.961387   1.085852   2.469602
    34  H    3.407861   2.157984   4.283644   2.159992   4.303618
                   31         32         33         34
    31  C    0.000000
    32  H    2.159248   0.000000
    33  H    2.158210   4.304789   0.000000
    34  H    1.085978   2.488977   2.490329   0.000000
 Stoichiometry    C18H12N2O2
 Framework group  C1[X(C18H12N2O2)]
 Deg. of freedom    96
 Full point group                 C1      NOp   1
 Largest Abelian subgroup         C1      NOp   1
 Largest concise Abelian subgroup C1      NOp   1
                         Standard orientation:                         
 ---------------------------------------------------------------------
 Center     Atomic      Atomic             Coordinates (Angstroms)
 Number     Number       Type             X           Y           Z
 ---------------------------------------------------------------------
      1          7           0        1.139583    1.784197    0.000007
      2          6           0       -0.277719    1.793573    0.000040
      3          6           0        1.685644    0.505034   -0.000042
      4          6           0        0.612608   -0.374229   -0.000038
      5          6           0       -0.612608    0.374235    0.000021
      6          6           0       -1.685644   -0.505029    0.000032
      7          6           0        0.277720   -1.793567   -0.000073
      8          7           0       -1.139581   -1.784192   -0.000038
      9          8           0       -0.946483    2.823388    0.000085
     10          8           0        0.946486   -2.823381   -0.000129
     11          1           0       -1.657661   -2.649354    0.000017
     12          1           0        1.657663    2.649360   -0.000022
     13          6           0       -3.123243   -0.266572    0.000083
     14          6           0       -3.612910    1.057418    0.000203
     15          6           0       -4.049042   -1.330726    0.000016
     16          6           0       -4.984997    1.297741    0.000258
     17          1           0       -2.914013    1.888741    0.000250
     18          6           0       -5.419273   -1.080813    0.000072
     19          1           0       -3.712449   -2.362920   -0.000087
     20          6           0       -5.893508    0.234650    0.000195
     21          1           0       -5.345299    2.322073    0.000351
     22          1           0       -6.116751   -1.913026    0.000018
     23          1           0       -6.962138    0.427983    0.000239
     24          6           0        3.123243    0.266574   -0.000082
     25          6           0        4.049046    1.330723   -0.000216
     26          6           0        3.612903   -1.057419    0.000022
     27          6           0        5.419277    1.080803   -0.000252
     28          1           0        3.712460    2.362919   -0.000285
     29          6           0        4.984989   -1.297748   -0.000016
     30          1           0        2.914002   -1.888738    0.000145
     31          6           0        5.893505   -0.234661   -0.000155
     32          1           0        6.116758    1.913014   -0.000354
     33          1           0        5.345287   -2.322082    0.000067
     34          1           0        6.962134   -0.428000   -0.000182
 ---------------------------------------------------------------------
 Rotational constants (GHZ):      0.8113965      0.1443547      0.1225516
 Standard basis: 6-31+G(d,p) (6D, 7F)
 There are   478 symmetry adapted basis functions of A   symmetry.
 Integral buffers will be    262144 words long.
 Raffenetti 2 integral format.
 Two-electron integral symmetry is turned on.
   478 basis functions,   788 primitive gaussians,   478 cartesian basis functions
    75 alpha electrons       75 beta electrons
       nuclear repulsion energy      1595.2159677335 Hartrees.
 NAtoms=   34 NActive=   34 NUniq=   34 SFac= 1.00D+00 NAtFMM=   50 NAOKFM=F Big=F
 One-electron integrals computed using PRISM.
 NBasis=   478 RedAO= T  NBF=   478
 NBsUse=   473 1.00D-06 NBFU=   473
 Harris functional with IExCor=20419 diagonalized for initial guess.
 ExpMin= 4.38D-02 ExpMax= 5.48D+03 ExpMxC= 8.25D+02 IAcc=2 IRadAn=         0 AccDes= 0.00D+00
 HarFok:  IExCor=20419 AccDes= 0.00D+00 IRadAn=         0 IDoV= 1
 ScaDFX=  1.000000  1.000000  1.000000  1.000000
 FoFCou: FMM=F IPFlag=           0 FMFlag=      100000 FMFlg1=           0
         NFxFlg=           0 DoJE=T BraDBF=F KetDBF=T FulRan=T
         Omega=  0.000000  0.000000  1.000000  0.000000  0.000000 ICntrl=     500 IOpCl=  0
         NMat0=    1 NMatS0=    1 NMatT0=    0 NMatD0=    1 NMtDS0=    0 NMtDT0=    0
         I1Cent=           4 NGrid=           0.
 Petite list used in FoFCou.
 Initial guess orbital symmetries:
       Occupied  (A) (A) (A) (A) (A) (A) (A) (A) (A) (A) (A) (A)
                 (A) (A) (A) (A) (A) (A) (A) (A) (A) (A) (A) (A)
                 (A) (A) (A) (A) (A) (A) (A) (A) (A) (A) (A) (A)
                 (A) (A) (A) (A) (A) (A) (A) (A) (A) (A) (A) (A)
                 (A) (A) (A) (A) (A) (A) (A) (A) (A) (A) (A) (A)
                 (A) (A) (A) (A) (A) (A) (A) (A) (A) (A) (A) (A)
                 (A) (A) (A)
       Virtual   (A) (A) (A) (A) (A) (A) (A) (A) (A) (A) (A) (A)
                 (A) (A) (A) (A) (A) (A) (A) (A) (A) (A) (A) (A)
                 (A) (A) (A) (A) (A) (A) (A) (A) (A) (A) (A) (A)
                 (A) (A) (A) (A) (A) (A) (A) (A) (A) (A) (A) (A)
                 (A) (A) (A) (A) (A) (A) (A) (A) (A) (A) (A) (A)
                 (A) (A) (A) (A) (A) (A) (A) (A) (A) (A) (A) (A)
                 (A) (A) (A) (A) (A) (A) (A) (A) (A) (A) (A) (A)
                 (A) (A) (A) (A) (A) (A) (A) (A) (A) (A) (A) (A)
                 (A) (A) (A) (A) (A) (A) (A) (A) (A) (A) (A) (A)
                 (A) (A) (A) (A) (A) (A) (A) (A) (A) (A) (A) (A)
                 (A) (A) (A) (A) (A) (A) (A) (A) (A) (A) (A) (A)
                 (A) (A) (A) (A) (A) (A) (A) (A) (A) (A) (A) (A)
                 (A) (A) (A) (A) (A) (A) (A) (A) (A) (A) (A) (A)
                 (A) (A) (A) (A) (A) (A) (A) (A) (A) (A) (A) (A)
                 (A) (A) (A) (A) (A) (A) (A) (A) (A) (A) (A) (A)
                 (A) (A) (A) (A) (A) (A) (A) (A) (A) (A) (A) (A)
                 (A) (A) (A) (A) (A) (A) (A) (A) (A) (A) (A) (A)
                 (A) (A) (A) (A) (A) (A) (A) (A) (A) (A) (A) (A)
                 (A) (A) (A) (A) (A) (A) (A) (A) (A) (A) (A) (A)
                 (A) (A) (A) (A) (A) (A) (A) (A) (A) (A) (A) (A)
                 (A) (A) (A) (A) (A) (A) (A) (A) (A) (A) (A) (A)
                 (A) (A) (A) (A) (A) (A) (A) (A) (A) (A) (A) (A)
                 (A) (A) (A) (A) (A) (A) (A) (A) (A) (A) (A) (A)
                 (A) (A) (A) (A) (A) (A) (A) (A) (A) (A) (A) (A)
                 (A) (A) (A) (A) (A) (A) (A) (A) (A) (A) (A) (A)
                 (A) (A) (A) (A) (A) (A) (A) (A) (A) (A) (A) (A)
                 (A) (A) (A) (A) (A) (A) (A) (A) (A) (A) (A) (A)
                 (A) (A) (A) (A) (A) (A) (A) (A) (A) (A) (A) (A)
                 (A) (A) (A) (A) (A) (A) (A) (A) (A) (A) (A) (A)
                 (A) (A) (A) (A) (A) (A) (A) (A) (A) (A) (A) (A)
                 (A) (A) (A) (A) (A) (A) (A) (A) (A) (A) (A) (A)
                 (A) (A) (A) (A) (A) (A) (A) (A) (A) (A) (A) (A)
                 (A) (A) (A) (A) (A) (A) (A) (A) (A) (A) (A) (A)
                 (A) (A)
 The electronic state of the initial guess is 1-A.
 Requested convergence on RMS density matrix=1.00D-08 within 128 cycles.
 Requested convergence on MAX density matrix=1.00D-06.
 Requested convergence on             energy=1.00D-06.
 No special actions if energy rises.
 FoFJK:  IHMeth= 1 ICntrl=     0 DoSepK=T KAlg= 1 I1Cent= 0 FoldK=F
 FoFJK:  IHMeth= 1 ICntrl=     0 DoSepK=T KAlg= 1 I1Cent= 0 FoldK=F
 FoFJK:  IHMeth= 1 ICntrl=     0 DoSepK=T KAlg= 1 I1Cent= 0 FoldK=F
 FoFJK:  IHMeth= 1 ICntrl=     0 DoSepK=T KAlg= 1 I1Cent= 0 FoldK=F
 FoFJK:  IHMeth= 1 ICntrl=     0 DoSepK=T KAlg= 1 I1Cent= 0 FoldK=F
 FoFJK:  IHMeth= 1 ICntrl=     0 DoSepK=T KAlg= 1 I1Cent= 0 FoldK=F
 FoFJK:  IHMeth= 1 ICntrl=     0 DoSepK=T KAlg= 1 I1Cent= 0 FoldK=F
 FoFJK:  IHMeth= 1 ICntrl=     0 DoSepK=T KAlg= 1 I1Cent= 0 FoldK=F
 FoFJK:  IHMeth= 1 ICntrl=     0 DoSepK=T KAlg= 1 I1Cent= 0 FoldK=F
 FoFJK:  IHMeth= 1 ICntrl=     0 DoSepK=T KAlg= 1 I1Cent= 0 FoldK=F
 FoFJK:  IHMeth= 1 ICntrl=     0 DoSepK=T KAlg= 1 I1Cent= 0 FoldK=F
 FoFJK:  IHMeth= 1 ICntrl=     0 DoSepK=T KAlg= 1 I1Cent= 0 FoldK=F
 FoFJK:  IHMeth= 1 ICntrl=     0 DoSepK=T KAlg= 1 I1Cent= 0 FoldK=F
 FoFJK:  IHMeth= 1 ICntrl=     0 DoSepK=T KAlg= 1 I1Cent= 0 FoldK=F
 FoFJK:  IHMeth= 1 ICntrl=     0 DoSepK=T KAlg= 1 I1Cent= 0 FoldK=F
 FoFJK:  IHMeth= 1 ICntrl=     0 DoSepK=T KAlg= 1 I1Cent= 0 FoldK=F
 SCF Done:  E(RCAM-B3LYP) =  -952.680980583     A.U. after   16 cycles
             Convg  =    0.4991D-08             -V/T =  2.0094
 ExpMin= 4.38D-02 ExpMax= 5.48D+03 ExpMxC= 8.25D+02 IAcc=3 IRadAn=         5 AccDes= 0.00D+00
 HarFok:  IExCor=  205 AccDes= 0.00D+00 IRadAn=         5 IDoV=-2
 ScaDFX=  1.000000  1.000000  1.000000  1.000000
 Range of M.O.s used for correlation:    23   473
 NBasis=   478 NAE=    75 NBE=    75 NFC=    22 NFV=     0
 NROrb=    451 NOA=    53 NOB=    53 NVA=   398 NVB=   398

 **** Warning!!: The largest alpha MO coefficient is  0.16438108D+03

 Orbital symmetries:
       Occupied  (A) (A) (A) (A) (A) (A) (A) (A) (A) (A) (A) (A)
                 (A) (A) (A) (A) (A) (A) (A) (A) (A) (A) (A) (A)
                 (A) (A) (A) (A) (A) (A) (A) (A) (A) (A) (A) (A)
                 (A) (A) (A) (A) (A) (A) (A) (A) (A) (A) (A) (A)
                 (A) (A) (A) (A) (A) (A) (A) (A) (A) (A) (A) (A)
                 (A) (A) (A) (A) (A) (A) (A) (A) (A) (A) (A) (A)
                 (A) (A) (A)
       Virtual   (A) (A) (A) (A) (A) (A) (A) (A) (A) (A) (A) (A)
                 (A) (A) (A) (A) (A) (A) (A) (A) (A) (A) (A) (A)
                 (A) (A) (A) (A) (A) (A) (A) (A) (A) (A) (A) (A)
                 (A) (A) (A) (A) (A) (A) (A) (A) (A) (A) (A) (A)
                 (A) (A) (A) (A) (A) (A) (A) (A) (A) (A) (A) (A)
                 (A) (A) (A) (A) (A) (A) (A) (A) (A) (A) (A) (A)
                 (A) (A) (A) (A) (A) (A) (A) (A) (A) (A) (A) (A)
                 (A) (A) (A) (A) (A) (A) (A) (A) (A) (A) (A) (A)
                 (A) (A) (A) (A) (A) (A) (A) (A) (A) (A) (A) (A)
                 (A) (A) (A) (A) (A) (A) (A) (A) (A) (A) (A) (A)
                 (A) (A) (A) (A) (A) (A) (A) (A) (A) (A) (A) (A)
                 (A) (A) (A) (A) (A) (A) (A) (A) (A) (A) (A) (A)
                 (A) (A) (A) (A) (A) (A) (A) (A) (A) (A) (A) (A)
                 (A) (A) (A) (A) (A) (A) (A) (A) (A) (A) (A) (A)
                 (A) (A) (A) (A) (A) (A) (A) (A) (A) (A) (A) (A)
                 (A) (A) (A) (A) (A) (A) (A) (A) (A) (A) (A) (A)
                 (A) (A) (A) (A) (A) (A) (A) (A) (A) (A) (A) (A)
                 (A) (A) (A) (A) (A) (A) (A) (A) (A) (A) (A) (A)
                 (A) (A) (A) (A) (A) (A) (A) (A) (A) (A) (A) (A)
                 (A) (A) (A) (A) (A) (A) (A) (A) (A) (A) (A) (A)
                 (A) (A) (A) (A) (A) (A) (A) (A) (A) (A) (A) (A)
                 (A) (A) (A) (A) (A) (A) (A) (A) (A) (A) (A) (A)
                 (A) (A) (A) (A) (A) (A) (A) (A) (A) (A) (A) (A)
                 (A) (A) (A) (A) (A) (A) (A) (A) (A) (A) (A) (A)
                 (A) (A) (A) (A) (A) (A) (A) (A) (A) (A) (A) (A)
                 (A) (A) (A) (A) (A) (A) (A) (A) (A) (A) (A) (A)
                 (A) (A) (A) (A) (A) (A) (A) (A) (A) (A) (A) (A)
                 (A) (A) (A) (A) (A) (A) (A) (A) (A) (A) (A) (A)
                 (A) (A) (A) (A) (A) (A) (A) (A) (A) (A) (A) (A)
                 (A) (A) (A) (A) (A) (A) (A) (A) (A) (A) (A) (A)
                 (A) (A) (A) (A) (A) (A) (A) (A) (A) (A) (A) (A)
                 (A) (A) (A) (A) (A) (A) (A) (A) (A) (A) (A) (A)
                 (A) (A) (A) (A) (A) (A) (A) (A) (A) (A) (A) (A)
                 (A) (A)
    40 initial guesses have been made.
 Convergence on wavefunction:    0.001000000000000
 Iteration     1 Dimension    40 NMult    40
 CISAX will form    14 AO SS matrices at one time.
 FoFJK:  IHMeth= 1 ICntrl=     0 DoSepK=T KAlg= 1 I1Cent= 0 FoldK=F
 CalDSu:  requested number of processors reduced to:   4 ShMem   1 Linda.
 FoFJK:  IHMeth= 1 ICntrl=     0 DoSepK=T KAlg= 1 I1Cent= 0 FoldK=F
 CalDSu:  requested number of processors reduced to:   4 ShMem   1 Linda.
 FoFJK:  IHMeth= 1 ICntrl=     0 DoSepK=T KAlg= 1 I1Cent= 0 FoldK=F
 CalDSu:  requested number of processors reduced to:   5 ShMem   1 Linda.
 FoFJK:  IHMeth= 1 ICntrl=     0 DoSepK=T KAlg= 1 I1Cent= 0 FoldK=F
 FoFJK:  IHMeth= 1 ICntrl=     0 DoSepK=T KAlg= 1 I1Cent= 0 FoldK=F
 FoFJK:  IHMeth= 1 ICntrl=     0 DoSepK=T KAlg= 1 I1Cent= 0 FoldK=F
 New state      2 was old state      8
 New state      3 was old state      7
 New state      4 was old state      2
 No map to state      5
 New state      6 was old state      4
 New state      7 was old state      9
 New state      8 was old state      6
 New state      9 was old state      5
 No map to state     10
 Iteration     2 Dimension    60 NMult    60
 FoFJK:  IHMeth= 1 ICntrl=     0 DoSepK=T KAlg= 1 I1Cent= 0 FoldK=F
 CoulSu:  requested number of processors reduced to:   5 ShMem   1 Linda.
 CoulSu:  requested number of processors reduced to:   5 ShMem   1 Linda.
 CalDSu:  requested number of processors reduced to:   3 ShMem   1 Linda.
 FoFJK:  IHMeth= 1 ICntrl=     0 DoSepK=T KAlg= 1 I1Cent= 0 FoldK=F
 CoulSu:  requested number of processors reduced to:   5 ShMem   1 Linda.
 Iteration     3 Dimension    80 NMult    80
 FoFJK:  IHMeth= 1 ICntrl=     0 DoSepK=T KAlg= 1 I1Cent= 0 FoldK=F
 CoulSu:  requested number of processors reduced to:   5 ShMem   1 Linda.
 CoulSu:  requested number of processors reduced to:   5 ShMem   1 Linda.
 CalDSu:  requested number of processors reduced to:   3 ShMem   1 Linda.
 FoFJK:  IHMeth= 1 ICntrl=     0 DoSepK=T KAlg= 1 I1Cent= 0 FoldK=F
 CoulSu:  requested number of processors reduced to:   5 ShMem   1 Linda.
 Iteration     4 Dimension   100 NMult   100
 FoFJK:  IHMeth= 1 ICntrl=     0 DoSepK=T KAlg= 1 I1Cent= 0 FoldK=F
 CoulSu:  requested number of processors reduced to:   5 ShMem   1 Linda.
 CoulSu:  requested number of processors reduced to:   5 ShMem   1 Linda.
 CalDSu:  requested number of processors reduced to:   3 ShMem   1 Linda.
 FoFJK:  IHMeth= 1 ICntrl=     0 DoSepK=T KAlg= 1 I1Cent= 0 FoldK=F
 CoulSu:  requested number of processors reduced to:   5 ShMem   1 Linda.
 Iteration     5 Dimension   120 NMult   120
 FoFJK:  IHMeth= 1 ICntrl=     0 DoSepK=T KAlg= 1 I1Cent= 0 FoldK=F
 CoulSu:  requested number of processors reduced to:   5 ShMem   1 Linda.
 CoulSu:  requested number of processors reduced to:   5 ShMem   1 Linda.
 CalDSu:  requested number of processors reduced to:   3 ShMem   1 Linda.
 FoFJK:  IHMeth= 1 ICntrl=     0 DoSepK=T KAlg= 1 I1Cent= 0 FoldK=F
 CoulSu:  requested number of processors reduced to:   5 ShMem   1 Linda.
 Iteration     6 Dimension   130 NMult   130
 FoFJK:  IHMeth= 1 ICntrl=     0 DoSepK=T KAlg= 1 I1Cent= 0 FoldK=F
 FoFJK:  IHMeth= 1 ICntrl=     0 DoSepK=T KAlg= 1 I1Cent= 0 FoldK=F
 Iteration     7 Dimension   132 NMult   132
 FoFJK:  IHMeth= 1 ICntrl=     0 DoSepK=T KAlg= 1 I1Cent= 0 FoldK=F
 FoFJK:  IHMeth= 1 ICntrl=     0 DoSepK=T KAlg= 1 I1Cent= 0 FoldK=F
 ***********************************************************************
 Excited states from <AA,BB:AA,BB> singles matrix:
 ***********************************************************************
 
 Ground to excited state transition densities written to RWF  633
 Ground to excited state transition electric dipole moments (Au):
       state          X           Y           Z        Dip. S.      Osc.
         1        -2.6320     -1.0395      0.0000      8.0078      0.5582
         2         0.0000      0.0000      0.0000      0.0000      0.0000
         3         0.0000      0.0000      0.0213      0.0005      0.0000
         4         0.0000      0.0000      0.0000      0.0000      0.0000
         5         0.0000     -0.0001      0.0000      0.0000      0.0000
         6        -0.1390      0.4583      0.0000      0.2294      0.0258
         7         0.0000      0.0001      0.0000      0.0000      0.0000
         8        -2.1882      0.5287      0.0001      5.0676      0.5995
         9         0.0000      0.0000      0.0000      0.0000      0.0000
        10         0.0001      0.0002      0.0000      0.0000      0.0000
 Ground to excited state transition velocity dipole moments (Au):
       state          X           Y           Z        Dip. S.      Osc.
         1         0.2687      0.1126      0.0000      0.0849      0.5413
         2         0.0000      0.0000      0.0000      0.0000      0.0000
         3         0.0000      0.0000     -0.0085      0.0001      0.0003
         4         0.0000      0.0000      0.0000      0.0000      0.0000
         5         0.0000      0.0000      0.0000      0.0000      0.0000
         6         0.0204     -0.0795      0.0000      0.0067      0.0266
         7         0.0000      0.0000      0.0000      0.0000      0.0000
         8         0.3710     -0.0944      0.0000      0.1465      0.5505
         9         0.0000      0.0000      0.0000      0.0000      0.0000
        10         0.0000      0.0000      0.0000      0.0000      0.0000
 Ground to excited state transition magnetic dipole moments (Au):
       state          X           Y           Z
         1         0.0000      0.0000      0.0000
         2         0.0000      0.0000     -0.8435
         3         0.0000      0.0000     -0.0002
         4         0.0000      0.0000      0.5999
         5         0.3894     -0.7084      0.0001
         6         0.0001     -0.0002     -0.0001
         7         0.0000      0.0000      0.8627
         8         0.0000      0.0000      0.0000
         9         0.0000      0.0000     -0.9113
        10         0.1381     -0.0232     -0.0007
 Ground to excited state transition velocity quadrupole moments (Au):
       state          XX          YY          ZZ          XY          XZ          YZ
         1         0.0000      0.0000      0.0000      0.0000      0.0000      0.0000
         2        -0.5920     -0.0570      0.0174      0.0271      0.0000      0.0000
         3         0.0001      0.0000      0.0000      0.0000      0.0000      0.0000
         4        -2.6660      0.5293     -0.0452     -0.1033      0.0001      0.0000
         5         0.0001      0.0000      0.0000      0.0001      0.0490      0.0142
         6        -0.0001      0.0000      0.0000     -0.0001      0.0001      0.0000
         7         0.4519     -0.0076     -0.0041      0.5109      0.0000      0.0000
         8         0.0000      0.0000      0.0000      0.0000      0.0000      0.0000
         9         3.4713     -0.5685      0.0199     -0.0567     -0.0001      0.0000
        10        -0.0002      0.0001      0.0000     -0.0005      0.0620      0.0858
 <0|del|b> * <b|rxdel|0> + <0|del|b> * <b|delr+rdel|0>
 Rotatory Strengths (R) in cgs (10**-40 erg-esu-cm/Gauss)
       state          XX          YY          ZZ    R(velocity)
         1        -0.0111     -0.0055      0.0207      0.0014
         2         0.0031      0.0033      0.0000      0.0022
         3         0.0033      0.0032      0.0000      0.0022
         4        -0.0042     -0.0060      0.0000     -0.0034
         5        -0.0336     -0.0012     -0.0304     -0.0217
         6         0.0458      0.0027      0.0316      0.0267
         7        -0.0175     -0.0045      0.0000     -0.0073
         8        -0.0053      0.0037      0.0183      0.0056
         9        -0.0030     -0.0027      0.0000     -0.0019
        10         0.0055     -0.0057     -0.0038     -0.0014
 1/2[<0|r|b>*<b|rxdel|0> + (<0|rxdel|b>*<b|r|0>)*]
 Rotatory Strengths (R) in cgs (10**-40 erg-esu-cm/Gauss)
       state          XX          YY          ZZ     R(length)
         1         0.0202     -0.0150      0.0000      0.0017
         2         0.0000      0.0000      0.0049      0.0016
         3         0.0000      0.0000      0.0024      0.0008
         4         0.0000      0.0000     -0.0091     -0.0030
         5        -0.0062     -0.0701      0.0000     -0.0254
         6         0.0076      0.0715      0.0000      0.0263
         7         0.0000      0.0000     -0.0230     -0.0077
         8         0.0222     -0.0045      0.0000      0.0059
         9         0.0000      0.0000     -0.0095     -0.0032
        10        -0.0086      0.0028      0.0000     -0.0019
  1/2[<0|del|b>*<b|r|0> + (<0|r|b>*<b|del|0>)*] (Au)
       state          X           Y           Z        Dip. S.   Osc.(frdel)
         1        -0.7072     -0.1171      0.0000      0.8243      0.5495
         2         0.0000      0.0000      0.0000      0.0000      0.0000
         3         0.0000      0.0000     -0.0002      0.0002      0.0001
         4         0.0000      0.0000      0.0000      0.0000      0.0000
         5         0.0000      0.0000      0.0000      0.0000      0.0000
         6        -0.0028     -0.0364      0.0000      0.0393      0.0262
         7         0.0000      0.0000      0.0000      0.0000      0.0000
         8        -0.8117     -0.0499      0.0000      0.8616      0.5744
         9         0.0000      0.0000      0.0000      0.0000      0.0000
        10         0.0000      0.0000      0.0000      0.0000      0.0000

 Excitation energies and oscillator strengths:
 
 Excited State   1:      Singlet-A      2.8451 eV  435.78 nm  f=0.5582  <S**2>=0.000
      75 -> 76         0.70390
 This state for optimization and/or second-order correction.
 Total Energy, E(TD-HF/TD-KS) =  -952.576423982    
 Copying the excited state density for this state as the 1-particle RhoCI density.
 
 Excited State   2:      Singlet-A      3.9300 eV  315.48 nm  f=0.0000  <S**2>=0.000
      69 -> 76         0.47980
      69 -> 82        -0.10033
      72 -> 76        -0.21726
      74 -> 76         0.44622
 
 Excited State   3:      Singlet-A      4.0276 eV  307.84 nm  f=0.0000  <S**2>=0.000
      68 -> 77         0.12678
      70 -> 76         0.66699
      70 -> 82        -0.14144
 
 Excited State   4:      Singlet-A      4.3662 eV  283.96 nm  f=0.0000  <S**2>=0.000
      69 -> 76        -0.10153
      75 -> 77         0.67868
      75 -> 90        -0.11706
 
 Excited State   5:      Singlet-A      4.4817 eV  276.65 nm  f=0.0000  <S**2>=0.000
      68 -> 76         0.63613
      68 -> 82        -0.14642
      70 -> 77         0.20267
      70 -> 90        -0.13354
 
 Excited State   6:      Singlet-A      4.5866 eV  270.32 nm  f=0.0258  <S**2>=0.000
      71 -> 79        -0.11026
      72 -> 78        -0.14217
      73 -> 76         0.57765
      74 -> 77         0.20204
      75 -> 79        -0.26413
 
 Excited State   7:      Singlet-A      4.5976 eV  269.67 nm  f=0.0000  <S**2>=0.000
      69 -> 76        -0.26874
      71 -> 78         0.10664
      72 -> 76         0.27231
      72 -> 79         0.12923
      73 -> 77         0.21916
      74 -> 76         0.41276
      75 -> 78         0.28562
 
 Excited State   8:      Singlet-A      4.8287 eV  256.76 nm  f=0.5995  <S**2>=0.000
      71 -> 76         0.67650
      72 -> 77        -0.13726
 
 Excited State   9:      Singlet-A      4.9184 eV  252.08 nm  f=0.0000  <S**2>=0.000
      69 -> 76         0.37743
      71 -> 77        -0.13892
      72 -> 76         0.54062
      74 -> 76        -0.14091
 
 Excited State  10:      Singlet-A      5.2413 eV  236.55 nm  f=0.0000  <S**2>=0.000
      75 -> 80         0.58991
      75 -> 83        -0.18927
      75 -> 85        -0.27421
      75 -> 87         0.14807
 SavETr:  write IOETrn=   770 NScale= 10 NData=  16 NLR=1 LETran=     180.

 **********************************************************************

            Population analysis using the SCF density.

 **********************************************************************

 Orbital symmetries:
       Occupied  (A) (A) (A) (A) (A) (A) (A) (A) (A) (A) (A) (A)
                 (A) (A) (A) (A) (A) (A) (A) (A) (A) (A) (A) (A)
                 (A) (A) (A) (A) (A) (A) (A) (A) (A) (A) (A) (A)
                 (A) (A) (A) (A) (A) (A) (A) (A) (A) (A) (A) (A)
                 (A) (A) (A) (A) (A) (A) (A) (A) (A) (A) (A) (A)
                 (A) (A) (A) (A) (A) (A) (A) (A) (A) (A) (A) (A)
                 (A) (A) (A)
       Virtual   (A) (A) (A) (A) (A) (A) (A) (A) (A) (A) (A) (A)
                 (A) (A) (A) (A) (A) (A) (A) (A) (A) (A) (A) (A)
                 (A) (A) (A) (A) (A) (A) (A) (A) (A) (A) (A) (A)
                 (A) (A) (A) (A) (A) (A) (A) (A) (A) (A) (A) (A)
                 (A) (A) (A) (A) (A) (A) (A) (A) (A) (A) (A) (A)
                 (A) (A) (A) (A) (A) (A) (A) (A) (A) (A) (A) (A)
                 (A) (A) (A) (A) (A) (A) (A) (A) (A) (A) (A) (A)
                 (A) (A) (A) (A) (A) (A) (A) (A) (A) (A) (A) (A)
                 (A) (A) (A) (A) (A) (A) (A) (A) (A) (A) (A) (A)
                 (A) (A) (A) (A) (A) (A) (A) (A) (A) (A) (A) (A)
                 (A) (A) (A) (A) (A) (A) (A) (A) (A) (A) (A) (A)
                 (A) (A) (A) (A) (A) (A) (A) (A) (A) (A) (A) (A)
                 (A) (A) (A) (A) (A) (A) (A) (A) (A) (A) (A) (A)
                 (A) (A) (A) (A) (A) (A) (A) (A) (A) (A) (A) (A)
                 (A) (A) (A) (A) (A) (A) (A) (A) (A) (A) (A) (A)
                 (A) (A) (A) (A) (A) (A) (A) (A) (A) (A) (A) (A)
                 (A) (A) (A) (A) (A) (A) (A) (A) (A) (A) (A) (A)
                 (A) (A) (A) (A) (A) (A) (A) (A) (A) (A) (A) (A)
                 (A) (A) (A) (A) (A) (A) (A) (A) (A) (A) (A) (A)
                 (A) (A) (A) (A) (A) (A) (A) (A) (A) (A) (A) (A)
                 (A) (A) (A) (A) (A) (A) (A) (A) (A) (A) (A) (A)
                 (A) (A) (A) (A) (A) (A) (A) (A) (A) (A) (A) (A)
                 (A) (A) (A) (A) (A) (A) (A) (A) (A) (A) (A) (A)
                 (A) (A) (A) (A) (A) (A) (A) (A) (A) (A) (A) (A)
                 (A) (A) (A) (A) (A) (A) (A) (A) (A) (A) (A) (A)
                 (A) (A) (A) (A) (A) (A) (A) (A) (A) (A) (A) (A)
                 (A) (A) (A) (A) (A) (A) (A) (A) (A) (A) (A) (A)
                 (A) (A) (A) (A) (A) (A) (A) (A) (A) (A) (A) (A)
                 (A) (A) (A) (A) (A) (A) (A) (A) (A) (A) (A) (A)
                 (A) (A) (A) (A) (A) (A) (A) (A) (A) (A) (A) (A)
                 (A) (A) (A) (A) (A) (A) (A) (A) (A) (A) (A) (A)
                 (A) (A) (A) (A) (A) (A) (A) (A) (A) (A) (A) (A)
                 (A) (A) (A) (A) (A) (A) (A) (A) (A) (A) (A) (A)
                 (A) (A)
 The electronic state is 1-A.
 Alpha  occ. eigenvalues --  -19.21546 -19.21546 -14.46808 -14.46808 -10.38955
 Alpha  occ. eigenvalues --  -10.38954 -10.35325 -10.35325 -10.30367 -10.30367
 Alpha  occ. eigenvalues --  -10.29448 -10.29447 -10.28813 -10.28813 -10.28720
 Alpha  occ. eigenvalues --  -10.28720 -10.28261 -10.28261 -10.28156 -10.28156
 Alpha  occ. eigenvalues --  -10.27606 -10.27563  -1.14037  -1.13470  -1.06829
 Alpha  occ. eigenvalues --   -1.05506  -0.96149  -0.96126  -0.90022  -0.87909
 Alpha  occ. eigenvalues --   -0.87081  -0.84777  -0.84602  -0.80738  -0.77214
 Alpha  occ. eigenvalues --   -0.76444  -0.71211  -0.70187  -0.69831  -0.68880
 Alpha  occ. eigenvalues --   -0.65055  -0.63043  -0.61923  -0.61691  -0.57895
 Alpha  occ. eigenvalues --   -0.56699  -0.56334  -0.54840  -0.54391  -0.54133
 Alpha  occ. eigenvalues --   -0.53009  -0.52052  -0.51680  -0.50859  -0.50640
 Alpha  occ. eigenvalues --   -0.50617  -0.50356  -0.49916  -0.46957  -0.46117
 Alpha  occ. eigenvalues --   -0.46038  -0.43712  -0.43428  -0.42324  -0.42278
 Alpha  occ. eigenvalues --   -0.41903  -0.41256  -0.35164  -0.33698  -0.33361
 Alpha  occ. eigenvalues --   -0.33215  -0.32971  -0.32683  -0.32404  -0.25104
 Alpha virt. eigenvalues --   -0.07067  -0.00648   0.01677   0.01804   0.01991
 Alpha virt. eigenvalues --    0.02392   0.03646   0.03960   0.03964   0.04705
 Alpha virt. eigenvalues --    0.05658   0.06064   0.06171   0.06474   0.06504
 Alpha virt. eigenvalues --    0.07360   0.07953   0.08138   0.08456   0.09424
 Alpha virt. eigenvalues --    0.09750   0.09805   0.10404   0.10610   0.11250
 Alpha virt. eigenvalues --    0.12106   0.12271   0.12769   0.13003   0.13116
 Alpha virt. eigenvalues --    0.13350   0.14308   0.15019   0.15284   0.15642
 Alpha virt. eigenvalues --    0.15830   0.15949   0.16573   0.17019   0.17557
 Alpha virt. eigenvalues --    0.17794   0.17955   0.18510   0.18628   0.18850
 Alpha virt. eigenvalues --    0.19060   0.19255   0.19557   0.20350   0.21152
 Alpha virt. eigenvalues --    0.21289   0.21432   0.21541   0.21585   0.22097
 Alpha virt. eigenvalues --    0.22749   0.22936   0.23312   0.23458   0.23510
 Alpha virt. eigenvalues --    0.23973   0.24352   0.24769   0.25895   0.25900
 Alpha virt. eigenvalues --    0.26089   0.26139   0.26231   0.26280   0.26319
 Alpha virt. eigenvalues --    0.26553   0.27303   0.27798   0.28390   0.28401
 Alpha virt. eigenvalues --    0.28436   0.28706   0.28817   0.29579   0.29671
 Alpha virt. eigenvalues --    0.30218   0.30657   0.31662   0.31936   0.32726
 Alpha virt. eigenvalues --    0.32817   0.32973   0.33323   0.33368   0.34026
 Alpha virt. eigenvalues --    0.34365   0.34604   0.34641   0.35701   0.36118
 Alpha virt. eigenvalues --    0.36353   0.36752   0.37295   0.37446   0.37887
 Alpha virt. eigenvalues --    0.38147   0.39451   0.40037   0.40573   0.40636
 Alpha virt. eigenvalues --    0.41599   0.41996   0.42011   0.42207   0.43172
 Alpha virt. eigenvalues --    0.44564   0.45523   0.45665   0.45974   0.49171
 Alpha virt. eigenvalues --    0.49178   0.50620   0.52479   0.52671   0.54212
 Alpha virt. eigenvalues --    0.54757   0.56673   0.57364   0.61573   0.62170
 Alpha virt. eigenvalues --    0.64690   0.65667   0.67605   0.67744   0.71538
 Alpha virt. eigenvalues --    0.72080   0.72211   0.73675   0.73863   0.74587
 Alpha virt. eigenvalues --    0.75172   0.75471   0.75566   0.76039   0.76578
 Alpha virt. eigenvalues --    0.77406   0.77741   0.78132   0.78258   0.78994
 Alpha virt. eigenvalues --    0.79245   0.79380   0.79869   0.80929   0.81333
 Alpha virt. eigenvalues --    0.82376   0.83349   0.84251   0.84707   0.85020
 Alpha virt. eigenvalues --    0.85411   0.85900   0.87127   0.88119   0.88695
 Alpha virt. eigenvalues --    0.89463   0.91326   0.92522   0.92885   0.94404
 Alpha virt. eigenvalues --    0.94773   0.97496   0.98133   0.98633   0.98823
 Alpha virt. eigenvalues --    1.00312   1.01419   1.03081   1.03305   1.04332
 Alpha virt. eigenvalues --    1.04719   1.04736   1.06418   1.07279   1.08152
 Alpha virt. eigenvalues --    1.09330   1.11144   1.13323   1.13893   1.15174
 Alpha virt. eigenvalues --    1.15274   1.16867   1.17363   1.18754   1.19509
 Alpha virt. eigenvalues --    1.20151   1.21313   1.21862   1.23889   1.25081
 Alpha virt. eigenvalues --    1.26026   1.26976   1.28196   1.29333   1.29554
 Alpha virt. eigenvalues --    1.30126   1.30546   1.30890   1.31772   1.33498
 Alpha virt. eigenvalues --    1.33615   1.34392   1.35955   1.36929   1.37117
 Alpha virt. eigenvalues --    1.37224   1.37901   1.39161   1.39855   1.39972
 Alpha virt. eigenvalues --    1.40600   1.41162   1.42534   1.43200   1.43365
 Alpha virt. eigenvalues --    1.44503   1.45345   1.45627   1.46526   1.46865
 Alpha virt. eigenvalues --    1.47404   1.47406   1.47931   1.48256   1.48736
 Alpha virt. eigenvalues --    1.48805   1.52584   1.52647   1.53498   1.54241
 Alpha virt. eigenvalues --    1.57658   1.60777   1.62053   1.66519   1.66567
 Alpha virt. eigenvalues --    1.68396   1.72799   1.80138   1.80701   1.80908
 Alpha virt. eigenvalues --    1.83227   1.84160   1.84305   1.86570   1.87633
 Alpha virt. eigenvalues --    1.88472   1.89443   1.91452   1.92003   1.93574
 Alpha virt. eigenvalues --    1.96029   1.96102   1.96419   1.97069   1.97452
 Alpha virt. eigenvalues --    1.97960   1.99312   2.00933   2.01908   2.01936
 Alpha virt. eigenvalues --    2.02892   2.03531   2.03562   2.05132   2.06731
 Alpha virt. eigenvalues --    2.06793   2.07376   2.07852   2.08105   2.08570
 Alpha virt. eigenvalues --    2.10990   2.11423   2.12943   2.13371   2.14393
 Alpha virt. eigenvalues --    2.15192   2.16072   2.18017   2.18418   2.21078
 Alpha virt. eigenvalues --    2.22710   2.23601   2.24994   2.26237   2.32170
 Alpha virt. eigenvalues --    2.32903   2.34459   2.34854   2.35258   2.35851
 Alpha virt. eigenvalues --    2.38173   2.40530   2.40718   2.42712   2.43800
 Alpha virt. eigenvalues --    2.44842   2.44872   2.45095   2.45228   2.47161
 Alpha virt. eigenvalues --    2.47230   2.49098   2.51230   2.52059   2.52295
 Alpha virt. eigenvalues --    2.53969   2.54057   2.55101   2.57759   2.57898
 Alpha virt. eigenvalues --    2.58262   2.58904   2.59359   2.60205   2.62856
 Alpha virt. eigenvalues --    2.63159   2.63259   2.63912   2.65533   2.65698
 Alpha virt. eigenvalues --    2.66304   2.70104   2.70182   2.71502   2.71579
 Alpha virt. eigenvalues --    2.72476   2.73579   2.75002   2.77494   2.78196
 Alpha virt. eigenvalues --    2.79337   2.80856   2.81403   2.83967   2.84238
 Alpha virt. eigenvalues --    2.87652   2.87680   2.89379   2.92079   2.93368
 Alpha virt. eigenvalues --    2.99262   3.01908   3.02384   3.06674   3.08854
 Alpha virt. eigenvalues --    3.11919   3.13132   3.14099   3.14242   3.16698
 Alpha virt. eigenvalues --    3.22876   3.25175   3.25964   3.33034   3.33176
 Alpha virt. eigenvalues --    3.34236   3.34500   3.36186   3.37557   3.39558
 Alpha virt. eigenvalues --    3.41466   3.48431   3.51601   3.52079   3.56446
 Alpha virt. eigenvalues --    3.61217   3.61853   3.64687   3.65517   3.96571
 Alpha virt. eigenvalues --    3.96739   4.31750   4.35015   4.35103   4.37340
 Alpha virt. eigenvalues --    4.38486   4.40848   4.41183   4.41592   4.44837
 Alpha virt. eigenvalues --    4.47160   4.49359   4.52959   4.54424   4.57610
 Alpha virt. eigenvalues --    4.58402   4.65490   4.75114   4.82826   4.93341
 Alpha virt. eigenvalues --    4.95750   5.10488   5.18489
          Condensed to atoms (all electrons):
              1          2          3          4          5          6
     1  N    7.403965   0.665811  -0.170194  -0.114529  -0.438333   0.038339
     2  C    0.665811   9.566656  -1.490245  -0.713081  -2.644610  -0.037406
     3  C   -0.170194  -1.490245   7.719682   0.055081   0.146389  -0.049853
     4  C   -0.114529  -0.713081   0.055081   9.617386   0.463635   0.146388
     5  C   -0.438333  -2.644610   0.146389   0.463635   9.617383   0.055081
     6  C    0.038339  -0.037406  -0.049853   0.146388   0.055081   7.719702
     7  C    0.076047   0.914010  -0.037408  -2.644608  -0.713074  -1.490256
     8  N    0.007982   0.076047   0.038339  -0.438336  -0.114528  -0.170195
     9  O   -0.092659   0.102412  -0.003029  -0.012446   0.114768   0.000642
    10  O   -0.004105  -0.031055   0.000643   0.114771  -0.012447  -0.003029
    11  H    0.000245   0.009832  -0.005947  -0.003140   0.049862  -0.069122
    12  H    0.312888  -0.002993  -0.069122   0.049861  -0.003139  -0.005947
    13  C   -0.125576  -1.371315  -0.166972   0.181960   0.726613  -1.654242
    14  C    0.102213   0.926045  -0.012458  -0.007764   0.145004  -0.809342
    15  C   -0.031216  -0.293438  -0.011281  -0.412170  -1.117136   2.321175
    16  C    0.005394  -0.083378   0.072326   0.188916   0.083643  -0.005890
    17  H    0.001376   0.004923   0.015800   0.022856   0.048990   0.002054
    18  C    0.003467   0.099955  -0.013175  -0.051394   0.287841  -0.361092
    19  H   -0.000047  -0.004629   0.000757   0.005793   0.008292   0.097416
    20  C    0.001025   0.006089  -0.004581  -0.042707  -0.040487  -0.067797
    21  H   -0.000017  -0.002886  -0.000035   0.000164   0.000503   0.000921
    22  H    0.000000  -0.000183  -0.000021   0.000494  -0.002392  -0.006905
    23  H    0.000000   0.000000  -0.000011  -0.000111  -0.001175  -0.001813
    24  C   -0.224508  -0.145745  -1.654237   0.726623   0.181943  -0.166977
    25  C    0.088073  -1.134499   2.321161  -1.117153  -0.412174  -0.011285
    26  C   -0.227945   1.094214  -0.809320   0.145009  -0.007763  -0.012453
    27  C    0.075545   0.187076  -0.361088   0.287838  -0.051391  -0.013174
    28  H   -0.010018   0.002964   0.097415   0.008292   0.005793   0.000757
    29  C    0.085190  -0.138802  -0.005900   0.083649   0.188925   0.072329
    30  H    0.000196  -0.001250   0.002054   0.048990   0.022857   0.015800
    31  C   -0.014715   0.012690  -0.067796  -0.040488  -0.042708  -0.004581
    32  H    0.000615  -0.000089  -0.006905  -0.002392   0.000494  -0.000021
    33  H    0.000080  -0.000011   0.000921   0.000503   0.000164  -0.000035
    34  H    0.000006  -0.000024  -0.001813  -0.001175  -0.000111  -0.000011
              7          8          9         10         11         12
     1  N    0.076047   0.007982  -0.092659  -0.004105   0.000245   0.312888
     2  C    0.914010   0.076047   0.102412  -0.031055   0.009832  -0.002993
     3  C   -0.037408   0.038339  -0.003029   0.000643  -0.005947  -0.069122
     4  C   -2.644608  -0.438336  -0.012446   0.114771  -0.003140   0.049861
     5  C   -0.713074  -0.114528   0.114768  -0.012447   0.049862  -0.003139
     6  C   -1.490256  -0.170195   0.000642  -0.003029  -0.069122  -0.005947
     7  C    9.566654   0.665815  -0.031055   0.102410  -0.002991   0.009832
     8  N    0.665815   7.403965  -0.004105  -0.092660   0.312888   0.000245
     9  O   -0.031055  -0.004105   8.456510   0.000232   0.000012   0.001738
    10  O    0.102410  -0.092660   0.000232   8.456513   0.001738   0.000012
    11  H   -0.002991   0.312888   0.000012   0.001738   0.399821   0.000000
    12  H    0.009832   0.000245   0.001738   0.000012   0.000000   0.399821
    13  C   -0.145749  -0.224509   0.256570   0.037059  -0.119121  -0.004041
    14  C    1.094212  -0.227945  -0.189041  -0.013353  -0.036948   0.003034
    15  C   -1.134495   0.088074   0.038721  -0.009259   0.088889  -0.000513
    16  C   -0.138801   0.085190  -0.093248  -0.000275   0.002762   0.000565
    17  H   -0.001250   0.000196  -0.003989   0.000004   0.000001  -0.000002
    18  C    0.187079   0.075545  -0.002916  -0.004534   0.065944   0.000001
    19  H    0.002964  -0.010019   0.000011   0.000277   0.005433   0.000000
    20  C    0.012690  -0.014714  -0.007488   0.000011   0.001435  -0.000016
    21  H   -0.000011   0.000080   0.000204   0.000000   0.000000   0.000000
    22  H   -0.000089   0.000615  -0.000001   0.000000  -0.000004   0.000000
    23  H   -0.000024   0.000006   0.000008   0.000000   0.000000   0.000000
    24  C   -1.371315  -0.125578   0.037058   0.256574  -0.004041  -0.119120
    25  C   -0.293443  -0.031216  -0.009259   0.038722  -0.000513   0.088889
    26  C    0.926051   0.102214  -0.013353  -0.189043   0.003034  -0.036947
    27  C    0.099954   0.003467  -0.004534  -0.002916   0.000001   0.065943
    28  H   -0.004629  -0.000047   0.000277   0.000011   0.000000   0.005433
    29  C   -0.083379   0.005394  -0.000275  -0.093252   0.000565   0.002762
    30  H    0.004924   0.001376   0.000004  -0.003990  -0.000002   0.000001
    31  C    0.006089   0.001025   0.000011  -0.007489  -0.000016   0.001435
    32  H   -0.000183   0.000000   0.000000  -0.000001   0.000000  -0.000004
    33  H   -0.002886  -0.000017   0.000000   0.000204   0.000000   0.000000
    34  H    0.000000   0.000000   0.000000   0.000008   0.000000   0.000000
             13         14         15         16         17         18
     1  N   -0.125576   0.102213  -0.031216   0.005394   0.001376   0.003467
     2  C   -1.371315   0.926045  -0.293438  -0.083378   0.004923   0.099955
     3  C   -0.166972  -0.012458  -0.011281   0.072326   0.015800  -0.013175
     4  C    0.181960  -0.007764  -0.412170   0.188916   0.022856  -0.051394
     5  C    0.726613   0.145004  -1.117136   0.083643   0.048990   0.287841
     6  C   -1.654242  -0.809342   2.321175  -0.005890   0.002054  -0.361092
     7  C   -0.145749   1.094212  -1.134495  -0.138801  -0.001250   0.187079
     8  N   -0.224509  -0.227945   0.088074   0.085190   0.000196   0.075545
     9  O    0.256570  -0.189041   0.038721  -0.093248  -0.003989  -0.002916
    10  O    0.037059  -0.013353  -0.009259  -0.000275   0.000004  -0.004534
    11  H   -0.119121  -0.036948   0.088889   0.002762   0.000001   0.065944
    12  H   -0.004041   0.003034  -0.000513   0.000565  -0.000002   0.000001
    13  C   16.846230  -7.105418  -2.708729   2.083472  -0.036491  -0.255922
    14  C   -7.105418  32.625311 -14.163873  -9.508545   0.162064   1.965595
    15  C   -2.708729 -14.163873  26.216376   1.621952  -0.057515  -4.813442
    16  C    2.083472  -9.508545   1.621952  12.517352   0.169729  -0.267790
    17  H   -0.036491   0.162064  -0.057515   0.169729   0.513596   0.004055
    18  C   -0.255922   1.965595  -4.813442  -0.267790   0.004055   8.444234
    19  H   -0.046332  -0.017286   0.201926  -0.009481  -0.000114   0.071113
    20  C   -0.967966   1.470728  -0.137593  -0.476289  -0.024382   0.658371
    21  H    0.032911  -0.041978  -0.006368   0.355645  -0.005081   0.004470
    22  H    0.020860  -0.001061   0.074377  -0.001460   0.000012   0.233527
    23  H   -0.024389   0.066374   0.063364  -0.060413  -0.000135  -0.048542
    24  C    0.246289  -0.066896  -0.046426  -0.001817  -0.000676  -0.006638
    25  C   -0.046424   0.089267  -0.055618   0.006419   0.000889   0.002067
    26  C   -0.066899  -0.078021   0.089267   0.000789  -0.000550  -0.001921
    27  C   -0.006638  -0.001921   0.002067   0.000624   0.000035   0.000033
    28  H   -0.000319   0.000228  -0.000029   0.000010   0.000000   0.000000
    29  C   -0.001816   0.000789   0.006420   0.002531   0.000006   0.000624
    30  H   -0.000676  -0.000550   0.000889   0.000006   0.000000   0.000035
    31  C   -0.000041   0.000528  -0.000515  -0.000186  -0.000002  -0.000069
    32  H    0.000002  -0.000001   0.000000   0.000000   0.000000   0.000000
    33  H    0.000001   0.000001  -0.000001   0.000000   0.000000   0.000000
    34  H    0.000000   0.000000   0.000000   0.000000   0.000000   0.000000
             19         20         21         22         23         24
     1  N   -0.000047   0.001025  -0.000017   0.000000   0.000000  -0.224508
     2  C   -0.004629   0.006089  -0.002886  -0.000183   0.000000  -0.145745
     3  C    0.000757  -0.004581  -0.000035  -0.000021  -0.000011  -1.654237
     4  C    0.005793  -0.042707   0.000164   0.000494  -0.000111   0.726623
     5  C    0.008292  -0.040487   0.000503  -0.002392  -0.001175   0.181943
     6  C    0.097416  -0.067797   0.000921  -0.006905  -0.001813  -0.166977
     7  C    0.002964   0.012690  -0.000011  -0.000089  -0.000024  -1.371315
     8  N   -0.010019  -0.014714   0.000080   0.000615   0.000006  -0.125578
     9  O    0.000011  -0.007488   0.000204  -0.000001   0.000008   0.037058
    10  O    0.000277   0.000011   0.000000   0.000000   0.000000   0.256574
    11  H    0.005433   0.001435   0.000000  -0.000004   0.000000  -0.004041
    12  H    0.000000  -0.000016   0.000000   0.000000   0.000000  -0.119120
    13  C   -0.046332  -0.967966   0.032911   0.020860  -0.024389   0.246289
    14  C   -0.017286   1.470728  -0.041978  -0.001061   0.066374  -0.066896
    15  C    0.201926  -0.137593  -0.006368   0.074377   0.063364  -0.046426
    16  C   -0.009481  -0.476289   0.355645  -0.001460  -0.060413  -0.001817
    17  H   -0.000114  -0.024382  -0.005081   0.000012  -0.000135  -0.000676
    18  C    0.071113   0.658371   0.004470   0.233527  -0.048542  -0.006638
    19  H    0.601786  -0.008120   0.000015  -0.005875  -0.000159  -0.000319
    20  C   -0.008120   5.389591  -0.025281   0.000759   0.323902  -0.000041
    21  H    0.000015  -0.025281   0.545785  -0.000144  -0.004647   0.000001
    22  H   -0.005875   0.000759  -0.000144   0.553388  -0.004789   0.000002
    23  H   -0.000159   0.323902  -0.004647  -0.004789   0.552776   0.000000
    24  C   -0.000319  -0.000041   0.000001   0.000002   0.000000  16.846271
    25  C   -0.000029  -0.000515  -0.000001   0.000000   0.000000  -2.708796
    26  C    0.000228   0.000528   0.000001  -0.000001   0.000000  -7.105395
    27  C    0.000000  -0.000069   0.000000   0.000000   0.000000  -0.255905
    28  H    0.000000   0.000000   0.000000   0.000000   0.000000  -0.046331
    29  C    0.000010  -0.000186   0.000000   0.000000   0.000000   2.083472
    30  H    0.000000  -0.000002   0.000000   0.000000   0.000000  -0.036491
    31  C    0.000000   0.000020   0.000000   0.000000   0.000000  -0.967976
    32  H    0.000000   0.000000   0.000000   0.000000   0.000000   0.020860
    33  H    0.000000   0.000000   0.000000   0.000000   0.000000   0.032911
    34  H    0.000000   0.000000   0.000000   0.000000   0.000000  -0.024390
             25         26         27         28         29         30
     1  N    0.088073  -0.227945   0.075545  -0.010018   0.085190   0.000196
     2  C   -1.134499   1.094214   0.187076   0.002964  -0.138802  -0.001250
     3  C    2.321161  -0.809320  -0.361088   0.097415  -0.005900   0.002054
     4  C   -1.117153   0.145009   0.287838   0.008292   0.083649   0.048990
     5  C   -0.412174  -0.007763  -0.051391   0.005793   0.188925   0.022857
     6  C   -0.011285  -0.012453  -0.013174   0.000757   0.072329   0.015800
     7  C   -0.293443   0.926051   0.099954  -0.004629  -0.083379   0.004924
     8  N   -0.031216   0.102214   0.003467  -0.000047   0.005394   0.001376
     9  O   -0.009259  -0.013353  -0.004534   0.000277  -0.000275   0.000004
    10  O    0.038722  -0.189043  -0.002916   0.000011  -0.093252  -0.003990
    11  H   -0.000513   0.003034   0.000001   0.000000   0.000565  -0.000002
    12  H    0.088889  -0.036947   0.065943   0.005433   0.002762   0.000001
    13  C   -0.046424  -0.066899  -0.006638  -0.000319  -0.001816  -0.000676
    14  C    0.089267  -0.078021  -0.001921   0.000228   0.000789  -0.000550
    15  C   -0.055618   0.089267   0.002067  -0.000029   0.006420   0.000889
    16  C    0.006419   0.000789   0.000624   0.000010   0.002531   0.000006
    17  H    0.000889  -0.000550   0.000035   0.000000   0.000006   0.000000
    18  C    0.002067  -0.001921   0.000033   0.000000   0.000624   0.000035
    19  H   -0.000029   0.000228   0.000000   0.000000   0.000010   0.000000
    20  C   -0.000515   0.000528  -0.000069   0.000000  -0.000186  -0.000002
    21  H   -0.000001   0.000001   0.000000   0.000000   0.000000   0.000000
    22  H    0.000000  -0.000001   0.000000   0.000000   0.000000   0.000000
    23  H    0.000000   0.000000   0.000000   0.000000   0.000000   0.000000
    24  C   -2.708796  -7.105395  -0.255905  -0.046331   2.083472  -0.036491
    25  C   26.216508 -14.163924  -4.813424   0.201926   1.621949  -0.057516
    26  C  -14.163924  32.625350   1.965612  -0.017285  -9.508605   0.162061
    27  C   -4.813424   1.965612   8.444186   0.071112  -0.267798   0.004055
    28  H    0.201926  -0.017285   0.071112   0.601786  -0.009481  -0.000114
    29  C    1.621949  -9.508605  -0.267798  -0.009481  12.517431   0.169731
    30  H   -0.057516   0.162061   0.004055  -0.000114   0.169731   0.513596
    31  C   -0.137582   1.470731   0.658371  -0.008120  -0.476300  -0.024382
    32  H    0.074376  -0.001061   0.233527  -0.005875  -0.001460   0.000012
    33  H   -0.006368  -0.041978   0.004470   0.000015   0.355646  -0.005081
    34  H    0.063364   0.066375  -0.048542  -0.000159  -0.060413  -0.000135
             31         32         33         34
     1  N   -0.014715   0.000615   0.000080   0.000006
     2  C    0.012690  -0.000089  -0.000011  -0.000024
     3  C   -0.067796  -0.006905   0.000921  -0.001813
     4  C   -0.040488  -0.002392   0.000503  -0.001175
     5  C   -0.042708   0.000494   0.000164  -0.000111
     6  C   -0.004581  -0.000021  -0.000035  -0.000011
     7  C    0.006089  -0.000183  -0.002886   0.000000
     8  N    0.001025   0.000000  -0.000017   0.000000
     9  O    0.000011   0.000000   0.000000   0.000000
    10  O   -0.007489  -0.000001   0.000204   0.000008
    11  H   -0.000016   0.000000   0.000000   0.000000
    12  H    0.001435  -0.000004   0.000000   0.000000
    13  C   -0.000041   0.000002   0.000001   0.000000
    14  C    0.000528  -0.000001   0.000001   0.000000
    15  C   -0.000515   0.000000  -0.000001   0.000000
    16  C   -0.000186   0.000000   0.000000   0.000000
    17  H   -0.000002   0.000000   0.000000   0.000000
    18  C   -0.000069   0.000000   0.000000   0.000000
    19  H    0.000000   0.000000   0.000000   0.000000
    20  C    0.000020   0.000000   0.000000   0.000000
    21  H    0.000000   0.000000   0.000000   0.000000
    22  H    0.000000   0.000000   0.000000   0.000000
    23  H    0.000000   0.000000   0.000000   0.000000
    24  C   -0.967976   0.020860   0.032911  -0.024390
    25  C   -0.137582   0.074376  -0.006368   0.063364
    26  C    1.470731  -0.001061  -0.041978   0.066375
    27  C    0.658371   0.233527   0.004470  -0.048542
    28  H   -0.008120  -0.005875   0.000015  -0.000159
    29  C   -0.476300  -0.001460   0.355646  -0.060413
    30  H   -0.024382   0.000012  -0.005081  -0.000135
    31  C    5.389596   0.000759  -0.025281   0.323902
    32  H    0.000759   0.553388  -0.000144  -0.004789
    33  H   -0.025281  -0.000144   0.545785  -0.004647
    34  H    0.323902  -0.004789  -0.004647   0.552776
 Mulliken atomic charges:
              1
     1  N   -0.414596
     2  C    0.426915
     3  C    0.470822
     4  C   -0.546712
     5  C   -0.546711
     6  C    0.470821
     7  C    0.426917
     8  N   -0.414594
     9  O   -0.541780
    10  O   -0.541781
    11  H    0.299384
    12  H    0.299384
    13  C    0.647617
    14  C   -0.368994
    15  C    0.186121
    16  C   -0.549755
    17  H    0.183602
    18  C   -0.276519
    19  H    0.106387
    20  C   -0.046914
    21  H    0.145750
    22  H    0.138890
    23  H    0.139779
    24  C    0.647612
    25  C    0.186129
    26  C   -0.369000
    27  C   -0.276515
    28  H    0.106388
    29  C   -0.549755
    30  H    0.183602
    31  C   -0.046912
    32  H    0.138890
    33  H    0.145750
    34  H    0.139779
 Sum of Mulliken atomic charges =   0.00000
 Mulliken charges with hydrogens summed into heavy atoms:
              1
     1  N   -0.115212
     2  C    0.426915
     3  C    0.470822
     4  C   -0.546712
     5  C   -0.546711
     6  C    0.470821
     7  C    0.426917
     8  N   -0.115210
     9  O   -0.541780
    10  O   -0.541781
    13  C    0.647617
    14  C   -0.185392
    15  C    0.292508
    16  C   -0.404006
    18  C   -0.137629
    20  C    0.092865
    24  C    0.647612
    25  C    0.292517
    26  C   -0.185398
    27  C   -0.137625
    29  C   -0.404005
    31  C    0.092867
 Sum of Mulliken charges with hydrogens summed into heavy atoms =   0.00000
 Electronic spatial extent (au):  <R**2>=           8212.0463
 Charge=              0.0000 electrons
 Dipole moment (field-independent basis, Debye):
    X=              0.0000    Y=              0.0000    Z=              0.0001  Tot=              0.0001
 Quadrupole moment (field-independent basis, Debye-Ang):
   XX=            -90.9633   YY=           -131.1207   ZZ=           -133.7344
   XY=             14.9791   XZ=             -0.0010   YZ=             -0.0014
 Traceless Quadrupole moment (field-independent basis, Debye-Ang):
   XX=             27.6428   YY=            -12.5146   ZZ=            -15.1283
   XY=             14.9791   XZ=             -0.0010   YZ=             -0.0014
 Octapole moment (field-independent basis, Debye-Ang**2):
  XXX=             -0.0006  YYY=             -0.0001  ZZZ=             -0.0004  XYY=              0.0001
  XXY=              0.0000  XXZ=             -0.0008  XZZ=              0.0000  YZZ=              0.0000
  YYZ=              0.0012  XYZ=             -0.0073
 Hexadecapole moment (field-independent basis, Debye-Ang**3):
 XXXX=          -8057.9699 YYYY=          -1815.5779 ZZZZ=           -155.1874 XXXY=            -11.2419
 XXXZ=              0.0689 YYYX=            152.1770 YYYZ=             -0.0263 ZZZX=              0.1522
 ZZZY=             -0.0128 XXYY=          -1670.7230 XXZZ=          -1830.2633 YYZZ=           -323.9815
 XXYZ=             -0.0064 YYXZ=              0.0419 ZZXY=             -6.1905
 N-N= 1.595215967733D+03 E-N=-5.403190032985D+03  KE= 9.438343028612D+02
 1|1|UNPC-DESKTOP-1G0HI64|SP|RCAM-B3LYP TD-FC|6-31+G(d,p)|C18H12N2O2|US
 ER|12-Jul-2023|0||# td=(nstates=10) cam-b3lyp/6-31+g(d,p) geom=connect
 ivity||Title Card Required||0,1|N,0,1.139583,1.784197,0.000007|C,0,-0.
 277719,1.793573,0.00004|C,0,1.685644,0.505034,-0.000042|C,0,0.612608,-
 0.374229,-0.000038|C,0,-0.612608,0.374235,0.000021|C,0,-1.685644,-0.50
 5029,0.000032|C,0,0.27772,-1.793567,-0.000073|N,0,-1.139581,-1.784192,
 -0.000038|O,0,-0.946483,2.823388,0.000085|O,0,0.946486,-2.823381,-0.00
 0129|H,0,-1.657661,-2.649354,0.000017|H,0,1.657663,2.64936,-0.000022|C
 ,0,-3.123243,-0.266572,0.000083|C,0,-3.61291,1.057418,0.000203|C,0,-4.
 049042,-1.330726,0.000016|C,0,-4.984997,1.297741,0.000258|H,0,-2.91401
 3,1.888741,0.00025|C,0,-5.419273,-1.080813,0.000072|H,0,-3.712449,-2.3
 6292,-0.000087|C,0,-5.893508,0.23465,0.000195|H,0,-5.345299,2.322073,0
 .000351|H,0,-6.116751,-1.913026,0.000018|H,0,-6.962138,0.427983,0.0002
 39|C,0,3.123243,0.266574,-0.000082|C,0,4.049046,1.330723,-0.000216|C,0
 ,3.612903,-1.057419,0.000022|C,0,5.419277,1.080803,-0.000252|H,0,3.712
 46,2.362919,-0.000285|C,0,4.984989,-1.297748,-0.000016|H,0,2.914002,-1
 .888738,0.000145|C,0,5.893505,-0.234661,-0.000155|H,0,6.116758,1.91301
 4,-0.000354|H,0,5.345287,-2.322082,0.000067|H,0,6.962134,-0.428,-0.000
 182||Version=IA32W-G09RevB.01|State=1-A|HF=-952.6809806|RMSD=4.991e-00
 9|PG=C01 [X(C18H12N2O2)]||@


 YOU CAN LEAD A BOY TO COLLEGE....
 BUT YOU CANNOT MAKE HIM THINK....
           ELBERT HUBBARD
 Job cpu time:  0 days  0 hours 46 minutes  8.0 seconds.
 File lengths (MBytes):  RWF=    509 Int=      0 D2E=      0 Chk=     81 Scr=      1
 Normal termination of Gaussian 09 at Wed Jul 12 18:51:48 2023.
