 Entering Link 1 = C:\G09W\l1.exe PID=      2460.
  
 Copyright (c) 1988,1990,1992,1993,1995,1998,2003,2009,2010,
            Gaussian, Inc.  All Rights Reserved.
  
 This is part of the Gaussian(R) 09 program.  It is based on
 the Gaussian(R) 03 system (copyright 2003, Gaussian, Inc.),
 the Gaussian(R) 98 system (copyright 1998, Gaussian, Inc.),
 the Gaussian(R) 94 system (copyright 1995, Gaussian, Inc.),
 the Gaussian 92(TM) system (copyright 1992, Gaussian, Inc.),
 the Gaussian 90(TM) system (copyright 1990, Gaussian, Inc.),
 the Gaussian 88(TM) system (copyright 1988, Gaussian, Inc.),
 the Gaussian 86(TM) system (copyright 1986, Carnegie Mellon
 University), and the Gaussian 82(TM) system (copyright 1983,
 Carnegie Mellon University). Gaussian is a federally registered
 trademark of Gaussian, Inc.
  
 This software contains proprietary and confidential information,
 including trade secrets, belonging to Gaussian, Inc.
  
 This software is provided under written license and may be
 used, copied, transmitted, or stored only in accord with that
 written license.
  
 The following legend is applicable only to US Government
 contracts under FAR:
  
                    RESTRICTED RIGHTS LEGEND
  
 Use, reproduction and disclosure by the US Government is
 subject to restrictions as set forth in subparagraphs (a)
 and (c) of the Commercial Computer Software - Restricted
 Rights clause in FAR 52.227-19.
  
 Gaussian, Inc.
 340 Quinnipiac St., Bldg. 40, Wallingford CT 06492
  
  
 ---------------------------------------------------------------
 Warning -- This program may not be used in any manner that
 competes with the business of Gaussian, Inc. or will provide
 assistance to any competitor of Gaussian, Inc.  The licensee
 of this program is prohibited from giving any competitor of
 Gaussian, Inc. access to this program.  By using this program,
 the user acknowledges that Gaussian, Inc. is engaged in the
 business of creating and licensing software in the field of
 computational chemistry and represents and warrants to the
 licensee that it is not a competitor of Gaussian, Inc. and that
 it will not use this program in any manner prohibited above.
 ---------------------------------------------------------------
  

 Cite this work as:
 Gaussian 09, Revision B.01,
 M. J. Frisch, G. W. Trucks, H. B. Schlegel, G. E. Scuseria, 
 M. A. Robb, J. R. Cheeseman, G. Scalmani, V. Barone, B. Mennucci, 
 G. A. Petersson, H. Nakatsuji, M. Caricato, X. Li, H. P. Hratchian, 
 A. F. Izmaylov, J. Bloino, G. Zheng, J. L. Sonnenberg, M. Hada, 
 M. Ehara, K. Toyota, R. Fukuda, J. Hasegawa, M. Ishida, T. Nakajima, 
 Y. Honda, O. Kitao, H. Nakai, T. Vreven, J. A. Montgomery, Jr., 
 J. E. Peralta, F. Ogliaro, M. Bearpark, J. J. Heyd, E. Brothers, 
 K. N. Kudin, V. N. Staroverov, T. Keith, R. Kobayashi, J. Normand, 
 K. Raghavachari, A. Rendell, J. C. Burant, S. S. Iyengar, J. Tomasi, 
 M. Cossi, N. Rega, J. M. Millam, M. Klene, J. E. Knox, J. B. Cross, 
 V. Bakken, C. Adamo, J. Jaramillo, R. Gomperts, R. E. Stratmann, 
 O. Yazyev, A. J. Austin, R. Cammi, C. Pomelli, J. W. Ochterski, 
 R. L. Martin, K. Morokuma, V. G. Zakrzewski, G. A. Voth, 
 P. Salvador, J. J. Dannenberg, S. Dapprich, A. D. Daniels, 
 O. Farkas, J. B. Foresman, J. V. Ortiz, J. Cioslowski, 
 and D. J. Fox, Gaussian, Inc., Wallingford CT, 2010.
 
 ******************************************
 Gaussian 09:  IA32W-G09RevB.01 12-Aug-2010
                13-Jul-2023 
 ******************************************
 %nprocshared=6
 Will use up to    6 processors via shared memory.
 %chk=G:\Meu Drive\POS-DOC-IME\SUBSTITUINTES-DOADORES\DPP-substituido\DPP-SUB-1-O
 PT-FREQ-ANION.chk
 ----------------------------------------------
 # opt freq b3lyp/6-31+g(d,p) geom=connectivity
 ----------------------------------------------
 1/14=-1,18=20,19=15,26=3,38=1,57=2/1,3;
 2/9=110,12=2,17=6,18=5,40=1/2;
 3/5=1,6=6,7=111,11=2,16=1,25=1,30=1,71=1,74=-5/1,2,3;
 4//1;
 5/5=2,38=5/2;
 6/7=2,8=2,9=2,10=2,28=1/1;
 7//1,2,3,16;
 1/14=-1,18=20,19=15/3(2);
 2/9=110/2;
 99//99;
 2/9=110/2;
 3/5=1,6=6,7=111,11=2,16=1,25=1,30=1,71=1,74=-5/1,2,3;
 4/5=5,16=3/1;
 5/5=2,38=5/2;
 7//1,2,3,16;
 1/14=-1,18=20,19=15/3(-5);
 2/9=110/2;
 6/7=2,8=2,9=2,10=2,19=2,28=1/1;
 99/9=1/99;
 -------------------
 Title Card Required
 -------------------
 Symbolic Z-matrix:
 Charge = -1 Multiplicity = 2
 N                     1.13958   1.7842    0.00001 
 C                    -0.27772   1.79357   0.00004 
 C                     1.68564   0.50503  -0.00004 
 C                     0.61261  -0.37423  -0.00004 
 C                    -0.61261   0.37424   0.00002 
 C                    -1.68564  -0.50503   0.00003 
 C                     0.27772  -1.79357  -0.00007 
 N                    -1.13958  -1.78419  -0.00004 
 O                    -0.94648   2.82339   0.00009 
 O                     0.94649  -2.82338  -0.00013 
 H                    -1.65766  -2.64935   0.00002 
 H                     1.65766   2.64936  -0.00002 
 C                    -3.12324  -0.26657   0.00008 
 C                    -3.61291   1.05742   0.0002 
 C                    -4.04904  -1.33073   0.00002 
 C                    -4.985     1.29774   0.00026 
 H                    -2.91401   1.88874   0.00025 
 C                    -5.41927  -1.08081   0.00007 
 H                    -3.71245  -2.36292  -0.00009 
 C                    -5.89351   0.23465   0.0002 
 H                    -5.3453    2.32207   0.00035 
 H                    -6.11675  -1.91303   0.00002 
 H                    -6.96214   0.42798   0.00024 
 C                     3.12324   0.26657  -0.00008 
 C                     4.04905   1.33072  -0.00022 
 C                     3.6129   -1.05742   0.00002 
 C                     5.41928   1.0808   -0.00025 
 H                     3.71246   2.36292  -0.00029 
 C                     4.98499  -1.29775  -0.00002 
 H                     2.914    -1.88874   0.00015 
 C                     5.89351  -0.23466  -0.00016 
 H                     6.11676   1.91301  -0.00035 
 H                     5.34529  -2.32208   0.00007 
 H                     6.96213  -0.428    -0.00018 
 

 GradGradGradGradGradGradGradGradGradGradGradGradGradGradGradGradGradGrad
 Berny optimization.
 Initialization pass.
                           ----------------------------
                           !    Initial Parameters    !
                           ! (Angstroms and Degrees)  !
 --------------------------                            --------------------------
 ! Name  Definition              Value          Derivative Info.                !
 --------------------------------------------------------------------------------
 ! R1    R(1,2)                  1.4173         estimate D2E/DX2                !
 ! R2    R(1,3)                  1.3908         estimate D2E/DX2                !
 ! R3    R(1,12)                 1.0084         estimate D2E/DX2                !
 ! R4    R(2,5)                  1.4583         estimate D2E/DX2                !
 ! R5    R(2,9)                  1.2279         estimate D2E/DX2                !
 ! R6    R(3,4)                  1.3873         estimate D2E/DX2                !
 ! R7    R(3,24)                 1.4572         estimate D2E/DX2                !
 ! R8    R(4,5)                  1.4357         estimate D2E/DX2                !
 ! R9    R(4,7)                  1.4583         estimate D2E/DX2                !
 ! R10   R(5,6)                  1.3873         estimate D2E/DX2                !
 ! R11   R(6,8)                  1.3908         estimate D2E/DX2                !
 ! R12   R(6,13)                 1.4572         estimate D2E/DX2                !
 ! R13   R(7,8)                  1.4173         estimate D2E/DX2                !
 ! R14   R(7,10)                 1.2279         estimate D2E/DX2                !
 ! R15   R(8,11)                 1.0084         estimate D2E/DX2                !
 ! R16   R(13,14)                1.4116         estimate D2E/DX2                !
 ! R17   R(13,15)                1.4105         estimate D2E/DX2                !
 ! R18   R(14,16)                1.393          estimate D2E/DX2                !
 ! R19   R(14,17)                1.0861         estimate D2E/DX2                !
 ! R20   R(15,18)                1.3928         estimate D2E/DX2                !
 ! R21   R(15,19)                1.0857         estimate D2E/DX2                !
 ! R22   R(16,20)                1.3984         estimate D2E/DX2                !
 ! R23   R(16,21)                1.0859         estimate D2E/DX2                !
 ! R24   R(18,20)                1.3983         estimate D2E/DX2                !
 ! R25   R(18,22)                1.0858         estimate D2E/DX2                !
 ! R26   R(20,23)                1.086          estimate D2E/DX2                !
 ! R27   R(24,25)                1.4105         estimate D2E/DX2                !
 ! R28   R(24,26)                1.4116         estimate D2E/DX2                !
 ! R29   R(25,27)                1.3928         estimate D2E/DX2                !
 ! R30   R(25,28)                1.0857         estimate D2E/DX2                !
 ! R31   R(26,29)                1.393          estimate D2E/DX2                !
 ! R32   R(26,30)                1.0861         estimate D2E/DX2                !
 ! R33   R(27,31)                1.3983         estimate D2E/DX2                !
 ! R34   R(27,32)                1.0858         estimate D2E/DX2                !
 ! R35   R(29,31)                1.3984         estimate D2E/DX2                !
 ! R36   R(29,33)                1.0859         estimate D2E/DX2                !
 ! R37   R(31,34)                1.086          estimate D2E/DX2                !
 ! A1    A(2,1,3)              113.4961         estimate D2E/DX2                !
 ! A2    A(2,1,12)             120.5351         estimate D2E/DX2                !
 ! A3    A(3,1,12)             125.9687         estimate D2E/DX2                !
 ! A4    A(1,2,5)              102.8969         estimate D2E/DX2                !
 ! A5    A(1,2,9)              123.3788         estimate D2E/DX2                !
 ! A6    A(5,2,9)              133.7242         estimate D2E/DX2                !
 ! A7    A(1,3,4)              106.2146         estimate D2E/DX2                !
 ! A8    A(1,3,24)             122.5352         estimate D2E/DX2                !
 ! A9    A(4,3,24)             131.2501         estimate D2E/DX2                !
 ! A10   A(3,4,5)              109.2482         estimate D2E/DX2                !
 ! A11   A(3,4,7)              142.6077         estimate D2E/DX2                !
 ! A12   A(5,4,7)              108.1441         estimate D2E/DX2                !
 ! A13   A(2,5,4)              108.1441         estimate D2E/DX2                !
 ! A14   A(2,5,6)              142.6078         estimate D2E/DX2                !
 ! A15   A(4,5,6)              109.2482         estimate D2E/DX2                !
 ! A16   A(5,6,8)              106.2146         estimate D2E/DX2                !
 ! A17   A(5,6,13)             131.2502         estimate D2E/DX2                !
 ! A18   A(8,6,13)             122.5352         estimate D2E/DX2                !
 ! A19   A(4,7,8)              102.897          estimate D2E/DX2                !
 ! A20   A(4,7,10)             133.7242         estimate D2E/DX2                !
 ! A21   A(8,7,10)             123.3789         estimate D2E/DX2                !
 ! A22   A(6,8,7)              113.4962         estimate D2E/DX2                !
 ! A23   A(6,8,11)             125.9686         estimate D2E/DX2                !
 ! A24   A(7,8,11)             120.5352         estimate D2E/DX2                !
 ! A25   A(6,13,14)            119.7145         estimate D2E/DX2                !
 ! A26   A(6,13,15)            121.6048         estimate D2E/DX2                !
 ! A27   A(14,13,15)           118.6807         estimate D2E/DX2                !
 ! A28   A(13,14,16)           120.2312         estimate D2E/DX2                !
 ! A29   A(13,14,17)           119.6496         estimate D2E/DX2                !
 ! A30   A(16,14,17)           120.1193         estimate D2E/DX2                !
 ! A31   A(13,15,18)           120.6864         estimate D2E/DX2                !
 ! A32   A(13,15,19)           120.9163         estimate D2E/DX2                !
 ! A33   A(18,15,19)           118.3973         estimate D2E/DX2                !
 ! A34   A(14,16,20)           120.5823         estimate D2E/DX2                !
 ! A35   A(14,16,21)           119.3136         estimate D2E/DX2                !
 ! A36   A(20,16,21)           120.104          estimate D2E/DX2                !
 ! A37   A(15,18,20)           120.1611         estimate D2E/DX2                !
 ! A38   A(15,18,22)           119.63           estimate D2E/DX2                !
 ! A39   A(20,18,22)           120.209          estimate D2E/DX2                !
 ! A40   A(16,20,18)           119.6584         estimate D2E/DX2                !
 ! A41   A(16,20,23)           120.2622         estimate D2E/DX2                !
 ! A42   A(18,20,23)           120.0795         estimate D2E/DX2                !
 ! A43   A(3,24,25)            121.6049         estimate D2E/DX2                !
 ! A44   A(3,24,26)            119.7143         estimate D2E/DX2                !
 ! A45   A(25,24,26)           118.6807         estimate D2E/DX2                !
 ! A46   A(24,25,27)           120.6864         estimate D2E/DX2                !
 ! A47   A(24,25,28)           120.9164         estimate D2E/DX2                !
 ! A48   A(27,25,28)           118.3972         estimate D2E/DX2                !
 ! A49   A(24,26,29)           120.2311         estimate D2E/DX2                !
 ! A50   A(24,26,30)           119.6496         estimate D2E/DX2                !
 ! A51   A(29,26,30)           120.1193         estimate D2E/DX2                !
 ! A52   A(25,27,31)           120.1611         estimate D2E/DX2                !
 ! A53   A(25,27,32)           119.6299         estimate D2E/DX2                !
 ! A54   A(31,27,32)           120.2091         estimate D2E/DX2                !
 ! A55   A(26,29,31)           120.5823         estimate D2E/DX2                !
 ! A56   A(26,29,33)           119.3137         estimate D2E/DX2                !
 ! A57   A(31,29,33)           120.104          estimate D2E/DX2                !
 ! A58   A(27,31,29)           119.6584         estimate D2E/DX2                !
 ! A59   A(27,31,34)           120.0795         estimate D2E/DX2                !
 ! A60   A(29,31,34)           120.2621         estimate D2E/DX2                !
 ! D1    D(3,1,2,5)              0.0005         estimate D2E/DX2                !
 ! D2    D(3,1,2,9)            180.0            estimate D2E/DX2                !
 ! D3    D(12,1,2,5)           179.9978         estimate D2E/DX2                !
 ! D4    D(12,1,2,9)            -0.0028         estimate D2E/DX2                !
 ! D5    D(2,1,3,4)             -0.0002         estimate D2E/DX2                !
 ! D6    D(2,1,3,24)           180.0            estimate D2E/DX2                !
 ! D7    D(12,1,3,4)          -179.9973         estimate D2E/DX2                !
 ! D8    D(12,1,3,24)            0.0029         estimate D2E/DX2                !
 ! D9    D(1,2,5,4)             -0.0007         estimate D2E/DX2                !
 ! D10   D(1,2,5,6)            179.9998         estimate D2E/DX2                !
 ! D11   D(9,2,5,4)            180.0            estimate D2E/DX2                !
 ! D12   D(9,2,5,6)              0.0005         estimate D2E/DX2                !
 ! D13   D(1,3,4,5)             -0.0003         estimate D2E/DX2                !
 ! D14   D(1,3,4,7)            179.9997         estimate D2E/DX2                !
 ! D15   D(24,3,4,5)           179.9995         estimate D2E/DX2                !
 ! D16   D(24,3,4,7)            -0.0005         estimate D2E/DX2                !
 ! D17   D(1,3,24,25)           -0.0068         estimate D2E/DX2                !
 ! D18   D(1,3,24,26)          179.9929         estimate D2E/DX2                !
 ! D19   D(4,3,24,25)          179.9934         estimate D2E/DX2                !
 ! D20   D(4,3,24,26)           -0.0069         estimate D2E/DX2                !
 ! D21   D(3,4,5,2)              0.0006         estimate D2E/DX2                !
 ! D22   D(3,4,5,6)           -179.9997         estimate D2E/DX2                !
 ! D23   D(7,4,5,2)           -179.9993         estimate D2E/DX2                !
 ! D24   D(7,4,5,6)              0.0003         estimate D2E/DX2                !
 ! D25   D(3,4,7,8)           -179.9997         estimate D2E/DX2                !
 ! D26   D(3,4,7,10)            -0.0002         estimate D2E/DX2                !
 ! D27   D(5,4,7,8)              0.0003         estimate D2E/DX2                !
 ! D28   D(5,4,7,10)           179.9997         estimate D2E/DX2                !
 ! D29   D(2,5,6,8)            179.9987         estimate D2E/DX2                !
 ! D30   D(2,5,6,13)            -0.0004         estimate D2E/DX2                !
 ! D31   D(4,5,6,8)             -0.0008         estimate D2E/DX2                !
 ! D32   D(4,5,6,13)          -179.9999         estimate D2E/DX2                !
 ! D33   D(5,6,8,7)              0.001          estimate D2E/DX2                !
 ! D34   D(5,6,8,11)           179.9954         estimate D2E/DX2                !
 ! D35   D(13,6,8,7)          -179.9998         estimate D2E/DX2                !
 ! D36   D(13,6,8,11)           -0.0054         estimate D2E/DX2                !
 ! D37   D(5,6,13,14)           -0.0033         estimate D2E/DX2                !
 ! D38   D(5,6,13,15)          179.9967         estimate D2E/DX2                !
 ! D39   D(8,6,13,14)          179.9977         estimate D2E/DX2                !
 ! D40   D(8,6,13,15)           -0.0023         estimate D2E/DX2                !
 ! D41   D(4,7,8,6)             -0.0008         estimate D2E/DX2                !
 ! D42   D(4,7,8,11)          -179.9955         estimate D2E/DX2                !
 ! D43   D(10,7,8,6)           179.9997         estimate D2E/DX2                !
 ! D44   D(10,7,8,11)            0.005          estimate D2E/DX2                !
 ! D45   D(6,13,14,16)        -179.9997         estimate D2E/DX2                !
 ! D46   D(6,13,14,17)           0.0004         estimate D2E/DX2                !
 ! D47   D(15,13,14,16)          0.0002         estimate D2E/DX2                !
 ! D48   D(15,13,14,17)       -179.9996         estimate D2E/DX2                !
 ! D49   D(6,13,15,18)         179.9997         estimate D2E/DX2                !
 ! D50   D(6,13,15,19)          -0.0007         estimate D2E/DX2                !
 ! D51   D(14,13,15,18)         -0.0002         estimate D2E/DX2                !
 ! D52   D(14,13,15,19)        179.9994         estimate D2E/DX2                !
 ! D53   D(13,14,16,20)          0.0            estimate D2E/DX2                !
 ! D54   D(13,14,16,21)        180.0            estimate D2E/DX2                !
 ! D55   D(17,14,16,20)        179.9998         estimate D2E/DX2                !
 ! D56   D(17,14,16,21)         -0.0002         estimate D2E/DX2                !
 ! D57   D(13,15,18,20)          0.0            estimate D2E/DX2                !
 ! D58   D(13,15,18,22)        179.9999         estimate D2E/DX2                !
 ! D59   D(19,15,18,20)       -179.9996         estimate D2E/DX2                !
 ! D60   D(19,15,18,22)          0.0003         estimate D2E/DX2                !
 ! D61   D(14,16,20,18)         -0.0002         estimate D2E/DX2                !
 ! D62   D(14,16,20,23)        180.0            estimate D2E/DX2                !
 ! D63   D(21,16,20,18)        179.9998         estimate D2E/DX2                !
 ! D64   D(21,16,20,23)          0.0            estimate D2E/DX2                !
 ! D65   D(15,18,20,16)          0.0002         estimate D2E/DX2                !
 ! D66   D(15,18,20,23)       -180.0            estimate D2E/DX2                !
 ! D67   D(22,18,20,16)       -179.9997         estimate D2E/DX2                !
 ! D68   D(22,18,20,23)          0.0001         estimate D2E/DX2                !
 ! D69   D(3,24,25,27)         180.0            estimate D2E/DX2                !
 ! D70   D(3,24,25,28)           0.0005         estimate D2E/DX2                !
 ! D71   D(26,24,25,27)          0.0003         estimate D2E/DX2                !
 ! D72   D(26,24,25,28)       -179.9992         estimate D2E/DX2                !
 ! D73   D(3,24,26,29)         180.0            estimate D2E/DX2                !
 ! D74   D(3,24,26,30)          -0.0008         estimate D2E/DX2                !
 ! D75   D(25,24,26,29)         -0.0004         estimate D2E/DX2                !
 ! D76   D(25,24,26,30)        179.9988         estimate D2E/DX2                !
 ! D77   D(24,25,27,31)          0.0            estimate D2E/DX2                !
 ! D78   D(24,25,27,32)       -179.9999         estimate D2E/DX2                !
 ! D79   D(28,25,27,31)        179.9995         estimate D2E/DX2                !
 ! D80   D(28,25,27,32)         -0.0004         estimate D2E/DX2                !
 ! D81   D(24,26,29,31)          0.0001         estimate D2E/DX2                !
 ! D82   D(24,26,29,33)        179.9999         estimate D2E/DX2                !
 ! D83   D(30,26,29,31)       -179.9991         estimate D2E/DX2                !
 ! D84   D(30,26,29,33)          0.0007         estimate D2E/DX2                !
 ! D85   D(25,27,31,29)         -0.0003         estimate D2E/DX2                !
 ! D86   D(25,27,31,34)       -179.9999         estimate D2E/DX2                !
 ! D87   D(32,27,31,29)        179.9996         estimate D2E/DX2                !
 ! D88   D(32,27,31,34)          0.0            estimate D2E/DX2                !
 ! D89   D(26,29,31,27)          0.0002         estimate D2E/DX2                !
 ! D90   D(26,29,31,34)        179.9999         estimate D2E/DX2                !
 ! D91   D(33,29,31,27)       -179.9996         estimate D2E/DX2                !
 ! D92   D(33,29,31,34)          0.0001         estimate D2E/DX2                !
 --------------------------------------------------------------------------------
 Trust Radius=3.00D-01 FncErr=1.00D-07 GrdErr=1.00D-06
 Number of steps in this run=    199 maximum allowed number of steps=    204.
 GradGradGradGradGradGradGradGradGradGradGradGradGradGradGradGradGradGrad

                          Input orientation:                          
 ---------------------------------------------------------------------
 Center     Atomic      Atomic             Coordinates (Angstroms)
 Number     Number       Type             X           Y           Z
 ---------------------------------------------------------------------
      1          7           0        1.139583    1.784197    0.000007
      2          6           0       -0.277719    1.793573    0.000040
      3          6           0        1.685644    0.505034   -0.000042
      4          6           0        0.612608   -0.374229   -0.000038
      5          6           0       -0.612608    0.374235    0.000021
      6          6           0       -1.685644   -0.505029    0.000032
      7          6           0        0.277720   -1.793567   -0.000073
      8          7           0       -1.139581   -1.784192   -0.000038
      9          8           0       -0.946483    2.823388    0.000085
     10          8           0        0.946486   -2.823381   -0.000129
     11          1           0       -1.657661   -2.649354    0.000017
     12          1           0        1.657663    2.649360   -0.000022
     13          6           0       -3.123243   -0.266572    0.000083
     14          6           0       -3.612910    1.057418    0.000203
     15          6           0       -4.049042   -1.330726    0.000016
     16          6           0       -4.984997    1.297741    0.000258
     17          1           0       -2.914013    1.888741    0.000250
     18          6           0       -5.419273   -1.080813    0.000072
     19          1           0       -3.712449   -2.362920   -0.000087
     20          6           0       -5.893508    0.234650    0.000195
     21          1           0       -5.345299    2.322073    0.000351
     22          1           0       -6.116751   -1.913026    0.000018
     23          1           0       -6.962138    0.427983    0.000239
     24          6           0        3.123243    0.266574   -0.000082
     25          6           0        4.049046    1.330723   -0.000216
     26          6           0        3.612903   -1.057419    0.000022
     27          6           0        5.419277    1.080803   -0.000252
     28          1           0        3.712460    2.362919   -0.000285
     29          6           0        4.984989   -1.297748   -0.000016
     30          1           0        2.914002   -1.888738    0.000145
     31          6           0        5.893505   -0.234661   -0.000155
     32          1           0        6.116758    1.913014   -0.000354
     33          1           0        5.345287   -2.322082    0.000067
     34          1           0        6.962134   -0.428000   -0.000182
 ---------------------------------------------------------------------
                    Distance matrix (angstroms):
                    1          2          3          4          5
     1  N    0.000000
     2  C    1.417333   0.000000
     3  C    1.390842   2.348431   0.000000
     4  C    2.221825   2.343512   1.387267   0.000000
     5  C    2.249037   1.458311   2.301971   1.435741   0.000000
     6  C    3.636271   2.695519   3.519348   2.301971   1.387268
     7  C    3.680109   3.629888   2.695518   1.458311   2.343512
     8  N    4.234146   3.680110   3.636269   2.249036   2.221825
     9  O    2.330577   1.227911   3.507543   3.557460   2.471806
    10  O    4.611622   4.776499   3.409502   2.471805   3.557460
    11  H    5.242227   4.652294   4.596504   3.214081   3.199098
    12  H    1.008421   2.116146   2.144509   3.199098   3.214082
    13  C    4.730469   3.513005   4.870397   3.737402   2.591124
    14  C    4.807743   3.415468   5.327270   4.461459   3.077101
    15  C    6.051824   4.897359   6.021349   4.758767   3.836140
    16  C    6.143868   4.733320   6.717577   5.841974   4.468853
    17  H    4.054944   2.638011   4.803279   4.190237   2.755031
    18  C    7.157295   5.890473   7.279750   6.073125   5.022071
    19  H    6.382852   5.392013   6.112656   4.760358   4.135339
    20  C    7.201768   5.828150   7.583973   6.534545   5.282744
    21  H    6.507150   5.095064   7.261941   6.539625   5.117855
    22  H    8.143945   6.916153   8.168499   6.903055   5.960466
    23  H    8.214451   6.822484   8.648125   7.617107   6.349757
    24  C    2.497616   3.728038   1.457242   2.591123   3.737402
    25  C    2.944591   4.351451   2.503484   3.836140   4.758770
    26  C    3.767239   4.823390   2.481045   3.077096   4.461455
    27  C    4.337112   5.741411   3.777767   5.022070   6.073127
    28  H    2.637160   4.030593   2.749494   4.135343   4.760365
    29  C    4.928035   6.103471   3.759747   4.468848   5.841971
    30  H    4.079095   4.873038   2.690540   2.755023   4.190230
    31  C    5.164839   6.495979   4.272381   5.282741   6.534544
    32  H    4.978842   6.395592   4.649428   5.960465   6.903058
    33  H    5.877880   6.968272   4.624454   5.117849   6.539621
    34  H    6.228637   7.573035   5.358349   6.349754   7.617106
                    6          7          8          9         10
     6  C    0.000000
     7  C    2.348431   0.000000
     8  N    1.390842   1.417332   0.000000
     9  O    3.409504   4.776499   4.611624   0.000000
    10  O    3.507544   1.227911   2.330577   5.955613   0.000000
    11  H    2.144508   2.116145   1.008421   5.518757   2.609955
    12  H    4.596506   4.652294   5.242228   2.609954   5.518756
    13  C    1.457241   3.728037   2.497616   3.779701   4.806242
    14  C    2.481047   4.823393   3.767241   3.198200   5.987378
    15  C    2.503483   4.351447   2.944587   5.184837   5.213762
    16  C    3.759749   6.103472   4.928036   4.317082   7.222613
    17  H    2.690544   4.873043   4.079099   2.178242   6.091596
    18  C    3.777766   5.741406   4.337108   5.937056   6.599957
    19  H    2.749490   4.030585   2.637153   5.877785   4.681634
    20  C    4.272382   6.495977   5.164837   5.583424   7.492468
    21  H    4.624455   6.968273   5.877880   4.427290   8.127869
    22  H    4.649426   6.395587   4.978837   7.011796   7.121662
    23  H    5.358349   7.573033   6.228635   6.475034   8.550889
    24  C    4.870397   3.513002   4.730466   4.806243   3.779695
    25  C    6.021350   4.897355   6.051822   5.213766   5.184830
    26  C    5.327263   3.415459   4.807734   5.987375   3.198187
    27  C    7.279750   5.890468   7.157291   6.599962   5.937046
    28  H    6.112663   5.392014   6.382855   4.681643   5.877782
    29  C    6.717570   4.733309   6.143858   7.222612   4.317066
    30  H    4.803269   2.637999   4.054931   6.091591   2.178228
    31  C    7.583970   5.828141   7.201760   7.492470   5.583410
    32  H    8.168501   6.916148   8.143942   7.121668   7.011787
    33  H    7.261933   5.095053   6.507138   8.127868   4.427274
    34  H    8.648121   6.822475   8.214441   8.550892   6.475019
                   11         12         13         14         15
    11  H    0.000000
    12  H    6.250419   0.000000
    13  C    2.797424   5.599975   0.000000
    14  C    4.190842   5.505744   1.411639   0.000000
    15  C    2.730839   6.957555   1.410506   2.427641   0.000000
    16  C    5.162434   6.778776   2.431708   1.392974   2.790135
    17  H    4.708792   4.634519   2.165445   1.086073   3.413687
    18  C    4.075542   7.999826   2.436133   2.799103   1.392835
    19  H    2.074656   7.345819   2.177576   3.421786   1.085688
    20  C    5.124439   7.927863   2.815243   2.424474   2.419185
    21  H    6.189811   7.010606   3.411542   2.144883   3.875980
    22  H    4.519476   9.014260   3.416416   3.884940   2.148137
    23  H    6.132494   8.901432   3.901221   3.407861   3.402820
    24  C    5.599971   2.797426   6.269197   6.782418   7.347996
    25  C    6.957551   2.730845   7.347998   7.666829   8.524221
    26  C    5.505734   4.190844   6.782411   7.528938   7.666818
    27  C    7.999820   4.075550   8.648125   9.032217   9.770596
    28  H    7.345821   2.074666   7.324006   7.440792   8.595576
    29  C    6.778764   5.162437   8.173540   8.914633   9.034091
    30  H    4.634505   4.708792   6.251380   7.161035   6.985368
    31  C    7.927853   5.124445   9.016804   9.593821  10.002780
    32  H    9.014255   4.519484   9.493588   9.767215  10.670770
    33  H    7.010591   6.189815   8.714420   9.574462   9.446492
    34  H    8.901420   6.132500  10.086669  10.678859  11.048118
                   16         17         18         19         20
    16  C    0.000000
    17  H    2.153661   0.000000
    18  C    2.417874   3.885174   0.000000
    19  H    3.875541   4.325982   2.134724   0.000000
    20  C    1.398411   3.407845   1.398335   3.391812   0.000000
    21  H    1.085852   2.469601   3.403690   4.961387   2.158209
    22  H    3.404393   4.971012   1.085843   2.446032   2.159247
    23  H    2.159992   4.303618   2.157985   4.283645   1.085978
    24  C    8.173546   6.251391   8.648123   7.323996   9.016808
    25  C    9.034103   6.985383   9.770597   8.595569  10.002787
    26  C    8.914632   7.161040   9.032206   7.440774   9.593815
    27  C   10.406535   8.372364  11.052002   9.759490  11.344385
    28  H    8.762440   6.643417   9.759500   8.801297   9.838910
    29  C   10.302290   8.517508  10.406523   8.762421  10.985897
    30  H    8.517502   6.945150   8.372348   6.643395   9.059857
    31  C   10.985903   9.059868  11.344378   9.838894  11.796352
    32  H   11.118792   9.030804  11.918180  10.718998  12.126970
    33  H   10.946136   9.270764  10.835889   9.057828  11.525944
    34  H   12.071128  10.144238  12.398605  10.848532  12.872709
                   21         22         23         24         25
    21  H    0.000000
    22  H    4.304788   0.000000
    23  H    2.490330   2.488976   0.000000
    24  C    8.714429   9.493584  10.086673   0.000000
    25  C    9.446507  10.670770  11.048127   1.410505   0.000000
    26  C    9.574463   9.767202  10.678853   1.411639   2.427641
    27  C   10.835906  11.918177  12.398613   2.436132   1.392836
    28  H    9.057851  10.719006  10.848549   2.177576   1.085688
    29  C   10.946139  11.118777  12.071122   2.431708   2.790134
    30  H    9.270760   9.030786  10.144227   2.165445   3.413686
    31  C   11.525954  12.126960  12.872710   2.815242   2.419185
    32  H   11.469354  12.817852  13.162934   3.416416   2.148138
    33  H   11.655763  11.469335  12.610930   3.411542   3.875981
    34  H   12.610940  13.162923  13.950558   3.901220   3.402821
                   26         27         28         29         30
    26  C    0.000000
    27  C    2.799104   0.000000
    28  H    3.421787   2.134724   0.000000
    29  C    1.392975   2.417873   3.875540   0.000000
    30  H    1.086073   3.885174   4.325982   2.153661   0.000000
    31  C    2.424474   1.398334   3.391811   1.398412   3.407845
    32  H    3.884940   1.085843   2.446030   3.404393   4.971012
    33  H    2.144884   3.403689   4.961387   1.085852   2.469602
    34  H    3.407861   2.157984   4.283644   2.159992   4.303618
                   31         32         33         34
    31  C    0.000000
    32  H    2.159248   0.000000
    33  H    2.158210   4.304789   0.000000
    34  H    1.085978   2.488977   2.490329   0.000000
 Stoichiometry    C18H12N2O2(1-,2)
 Framework group  C1[X(C18H12N2O2)]
 Deg. of freedom    96
 Full point group                 C1      NOp   1
 Largest Abelian subgroup         C1      NOp   1
 Largest concise Abelian subgroup C1      NOp   1
                         Standard orientation:                         
 ---------------------------------------------------------------------
 Center     Atomic      Atomic             Coordinates (Angstroms)
 Number     Number       Type             X           Y           Z
 ---------------------------------------------------------------------
      1          7           0        1.139583    1.784197    0.000007
      2          6           0       -0.277719    1.793573    0.000040
      3          6           0        1.685644    0.505034   -0.000042
      4          6           0        0.612608   -0.374229   -0.000038
      5          6           0       -0.612608    0.374235    0.000021
      6          6           0       -1.685644   -0.505029    0.000032
      7          6           0        0.277720   -1.793567   -0.000073
      8          7           0       -1.139581   -1.784192   -0.000038
      9          8           0       -0.946483    2.823388    0.000085
     10          8           0        0.946486   -2.823381   -0.000129
     11          1           0       -1.657661   -2.649354    0.000017
     12          1           0        1.657663    2.649360   -0.000022
     13          6           0       -3.123243   -0.266572    0.000083
     14          6           0       -3.612910    1.057418    0.000203
     15          6           0       -4.049042   -1.330726    0.000016
     16          6           0       -4.984997    1.297741    0.000258
     17          1           0       -2.914013    1.888741    0.000250
     18          6           0       -5.419273   -1.080813    0.000072
     19          1           0       -3.712449   -2.362920   -0.000087
     20          6           0       -5.893508    0.234650    0.000195
     21          1           0       -5.345299    2.322073    0.000351
     22          1           0       -6.116751   -1.913026    0.000018
     23          1           0       -6.962138    0.427983    0.000239
     24          6           0        3.123243    0.266574   -0.000082
     25          6           0        4.049046    1.330723   -0.000216
     26          6           0        3.612903   -1.057419    0.000022
     27          6           0        5.419277    1.080803   -0.000252
     28          1           0        3.712460    2.362919   -0.000285
     29          6           0        4.984989   -1.297748   -0.000016
     30          1           0        2.914002   -1.888738    0.000145
     31          6           0        5.893505   -0.234661   -0.000155
     32          1           0        6.116758    1.913014   -0.000354
     33          1           0        5.345287   -2.322082    0.000067
     34          1           0        6.962134   -0.428000   -0.000182
 ---------------------------------------------------------------------
 Rotational constants (GHZ):      0.8113965      0.1443547      0.1225516
 Standard basis: 6-31+G(d,p) (6D, 7F)
 There are   478 symmetry adapted basis functions of A   symmetry.
 Integral buffers will be    262144 words long.
 Raffenetti 2 integral format.
 Two-electron integral symmetry is turned on.
   478 basis functions,   788 primitive gaussians,   478 cartesian basis functions
    76 alpha electrons       75 beta electrons
       nuclear repulsion energy      1595.2159677335 Hartrees.
 NAtoms=   34 NActive=   34 NUniq=   34 SFac= 1.00D+00 NAtFMM=   50 NAOKFM=F Big=F
 One-electron integrals computed using PRISM.
 NBasis=   478 RedAO= T  NBF=   478
 NBsUse=   473 1.00D-06 NBFU=   473
 Harris functional with IExCor=  402 diagonalized for initial guess.
 ExpMin= 4.38D-02 ExpMax= 5.48D+03 ExpMxC= 8.25D+02 IAcc=2 IRadAn=         0 AccDes= 0.00D+00
 HarFok:  IExCor=  402 AccDes= 0.00D+00 IRadAn=         0 IDoV= 1
 ScaDFX=  1.000000  1.000000  1.000000  1.000000
 FoFCou: FMM=F IPFlag=           0 FMFlag=      100000 FMFlg1=           0
         NFxFlg=           0 DoJE=T BraDBF=F KetDBF=T FulRan=T
         Omega=  0.000000  0.000000  1.000000  0.000000  0.000000 ICntrl=     500 IOpCl=  0
         NMat0=    1 NMatS0=    1 NMatT0=    0 NMatD0=    1 NMtDS0=    0 NMtDT0=    0
         I1Cent=           4 NGrid=           0.
 Petite list used in FoFCou.
 Initial guess orbital symmetries:
 Alpha Orbitals:
       Occupied  (A) (A) (A) (A) (A) (A) (A) (A) (A) (A) (A) (A)
                 (A) (A) (A) (A) (A) (A) (A) (A) (A) (A) (A) (A)
                 (A) (A) (A) (A) (A) (A) (A) (A) (A) (A) (A) (A)
                 (A) (A) (A) (A) (A) (A) (A) (A) (A) (A) (A) (A)
                 (A) (A) (A) (A) (A) (A) (A) (A) (A) (A) (A) (A)
                 (A) (A) (A) (A) (A) (A) (A) (A) (A) (A) (A) (A)
                 (A) (A) (A) (A)
       Virtual   (A) (A) (A) (A) (A) (A) (A) (A) (A) (A) (A) (A)
                 (A) (A) (A) (A) (A) (A) (A) (A) (A) (A) (A) (A)
                 (A) (A) (A) (A) (A) (A) (A) (A) (A) (A) (A) (A)
                 (A) (A) (A) (A) (A) (A) (A) (A) (A) (A) (A) (A)
                 (A) (A) (A) (A) (A) (A) (A) (A) (A) (A) (A) (A)
                 (A) (A) (A) (A) (A) (A) (A) (A) (A) (A) (A) (A)
                 (A) (A) (A) (A) (A) (A) (A) (A) (A) (A) (A) (A)
                 (A) (A) (A) (A) (A) (A) (A) (A) (A) (A) (A) (A)
                 (A) (A) (A) (A) (A) (A) (A) (A) (A) (A) (A) (A)
                 (A) (A) (A) (A) (A) (A) (A) (A) (A) (A) (A) (A)
                 (A) (A) (A) (A) (A) (A) (A) (A) (A) (A) (A) (A)
                 (A) (A) (A) (A) (A) (A) (A) (A) (A) (A) (A) (A)
                 (A) (A) (A) (A) (A) (A) (A) (A) (A) (A) (A) (A)
                 (A) (A) (A) (A) (A) (A) (A) (A) (A) (A) (A) (A)
                 (A) (A) (A) (A) (A) (A) (A) (A) (A) (A) (A) (A)
                 (A) (A) (A) (A) (A) (A) (A) (A) (A) (A) (A) (A)
                 (A) (A) (A) (A) (A) (A) (A) (A) (A) (A) (A) (A)
                 (A) (A) (A) (A) (A) (A) (A) (A) (A) (A) (A) (A)
                 (A) (A) (A) (A) (A) (A) (A) (A) (A) (A) (A) (A)
                 (A) (A) (A) (A) (A) (A) (A) (A) (A) (A) (A) (A)
                 (A) (A) (A) (A) (A) (A) (A) (A) (A) (A) (A) (A)
                 (A) (A) (A) (A) (A) (A) (A) (A) (A) (A) (A) (A)
                 (A) (A) (A) (A) (A) (A) (A) (A) (A) (A) (A) (A)
                 (A) (A) (A) (A) (A) (A) (A) (A) (A) (A) (A) (A)
                 (A) (A) (A) (A) (A) (A) (A) (A) (A) (A) (A) (A)
                 (A) (A) (A) (A) (A) (A) (A) (A) (A) (A) (A) (A)
                 (A) (A) (A) (A) (A) (A) (A) (A) (A) (A) (A) (A)
                 (A) (A) (A) (A) (A) (A) (A) (A) (A) (A) (A) (A)
                 (A) (A) (A) (A) (A) (A) (A) (A) (A) (A) (A) (A)
                 (A) (A) (A) (A) (A) (A) (A) (A) (A) (A) (A) (A)
                 (A) (A) (A) (A) (A) (A) (A) (A) (A) (A) (A) (A)
                 (A) (A) (A) (A) (A) (A) (A) (A) (A) (A) (A) (A)
                 (A) (A) (A) (A) (A) (A) (A) (A) (A) (A) (A) (A)
                 (A)
 Beta  Orbitals:
       Occupied  (A) (A) (A) (A) (A) (A) (A) (A) (A) (A) (A) (A)
                 (A) (A) (A) (A) (A) (A) (A) (A) (A) (A) (A) (A)
                 (A) (A) (A) (A) (A) (A) (A) (A) (A) (A) (A) (A)
                 (A) (A) (A) (A) (A) (A) (A) (A) (A) (A) (A) (A)
                 (A) (A) (A) (A) (A) (A) (A) (A) (A) (A) (A) (A)
                 (A) (A) (A) (A) (A) (A) (A) (A) (A) (A) (A) (A)
                 (A) (A) (A)
       Virtual   (A) (A) (A) (A) (A) (A) (A) (A) (A) (A) (A) (A)
                 (A) (A) (A) (A) (A) (A) (A) (A) (A) (A) (A) (A)
                 (A) (A) (A) (A) (A) (A) (A) (A) (A) (A) (A) (A)
                 (A) (A) (A) (A) (A) (A) (A) (A) (A) (A) (A) (A)
                 (A) (A) (A) (A) (A) (A) (A) (A) (A) (A) (A) (A)
                 (A) (A) (A) (A) (A) (A) (A) (A) (A) (A) (A) (A)
                 (A) (A) (A) (A) (A) (A) (A) (A) (A) (A) (A) (A)
                 (A) (A) (A) (A) (A) (A) (A) (A) (A) (A) (A) (A)
                 (A) (A) (A) (A) (A) (A) (A) (A) (A) (A) (A) (A)
                 (A) (A) (A) (A) (A) (A) (A) (A) (A) (A) (A) (A)
                 (A) (A) (A) (A) (A) (A) (A) (A) (A) (A) (A) (A)
                 (A) (A) (A) (A) (A) (A) (A) (A) (A) (A) (A) (A)
                 (A) (A) (A) (A) (A) (A) (A) (A) (A) (A) (A) (A)
                 (A) (A) (A) (A) (A) (A) (A) (A) (A) (A) (A) (A)
                 (A) (A) (A) (A) (A) (A) (A) (A) (A) (A) (A) (A)
                 (A) (A) (A) (A) (A) (A) (A) (A) (A) (A) (A) (A)
                 (A) (A) (A) (A) (A) (A) (A) (A) (A) (A) (A) (A)
                 (A) (A) (A) (A) (A) (A) (A) (A) (A) (A) (A) (A)
                 (A) (A) (A) (A) (A) (A) (A) (A) (A) (A) (A) (A)
                 (A) (A) (A) (A) (A) (A) (A) (A) (A) (A) (A) (A)
                 (A) (A) (A) (A) (A) (A) (A) (A) (A) (A) (A) (A)
                 (A) (A) (A) (A) (A) (A) (A) (A) (A) (A) (A) (A)
                 (A) (A) (A) (A) (A) (A) (A) (A) (A) (A) (A) (A)
                 (A) (A) (A) (A) (A) (A) (A) (A) (A) (A) (A) (A)
                 (A) (A) (A) (A) (A) (A) (A) (A) (A) (A) (A) (A)
                 (A) (A) (A) (A) (A) (A) (A) (A) (A) (A) (A) (A)
                 (A) (A) (A) (A) (A) (A) (A) (A) (A) (A) (A) (A)
                 (A) (A) (A) (A) (A) (A) (A) (A) (A) (A) (A) (A)
                 (A) (A) (A) (A) (A) (A) (A) (A) (A) (A) (A) (A)
                 (A) (A) (A) (A) (A) (A) (A) (A) (A) (A) (A) (A)
                 (A) (A) (A) (A) (A) (A) (A) (A) (A) (A) (A) (A)
                 (A) (A) (A) (A) (A) (A) (A) (A) (A) (A) (A) (A)
                 (A) (A) (A) (A) (A) (A) (A) (A) (A) (A) (A) (A)
                 (A) (A)
 The electronic state of the initial guess is 2-A.
 Initial guess <Sx>= 0.0000 <Sy>= 0.0000 <Sz>= 0.5000 <S**2>= 0.7500 S= 0.5000
 Requested convergence on RMS density matrix=1.00D-08 within 128 cycles.
 Requested convergence on MAX density matrix=1.00D-06.
 Requested convergence on             energy=1.00D-06.
 No special actions if energy rises.
 SCF Done:  E(UB3LYP) =  -953.234938476     A.U. after   19 cycles
             Convg  =    0.5445D-08             -V/T =  2.0092
 <Sx>= 0.0000 <Sy>= 0.0000 <Sz>= 0.5000 <S**2>= 0.7669 S= 0.5084
 <L.S>= 0.000000000000E+00
 Annihilation of the first spin contaminant:
 S**2 before annihilation     0.7669,   after     0.7502

 **********************************************************************

            Population analysis using the SCF density.

 **********************************************************************

 Orbital symmetries:
 Alpha Orbitals:
       Occupied  (A) (A) (A) (A) (A) (A) (A) (A) (A) (A) (A) (A)
                 (A) (A) (A) (A) (A) (A) (A) (A) (A) (A) (A) (A)
                 (A) (A) (A) (A) (A) (A) (A) (A) (A) (A) (A) (A)
                 (A) (A) (A) (A) (A) (A) (A) (A) (A) (A) (A) (A)
                 (A) (A) (A) (A) (A) (A) (A) (A) (A) (A) (A) (A)
                 (A) (A) (A) (A) (A) (A) (A) (A) (A) (A) (A) (A)
                 (A) (A) (A) (A)
       Virtual   (A) (A) (A) (A) (A) (A) (A) (A) (A) (A) (A) (A)
                 (A) (A) (A) (A) (A) (A) (A) (A) (A) (A) (A) (A)
                 (A) (A) (A) (A) (A) (A) (A) (A) (A) (A) (A) (A)
                 (A) (A) (A) (A) (A) (A) (A) (A) (A) (A) (A) (A)
                 (A) (A) (A) (A) (A) (A) (A) (A) (A) (A) (A) (A)
                 (A) (A) (A) (A) (A) (A) (A) (A) (A) (A) (A) (A)
                 (A) (A) (A) (A) (A) (A) (A) (A) (A) (A) (A) (A)
                 (A) (A) (A) (A) (A) (A) (A) (A) (A) (A) (A) (A)
                 (A) (A) (A) (A) (A) (A) (A) (A) (A) (A) (A) (A)
                 (A) (A) (A) (A) (A) (A) (A) (A) (A) (A) (A) (A)
                 (A) (A) (A) (A) (A) (A) (A) (A) (A) (A) (A) (A)
                 (A) (A) (A) (A) (A) (A) (A) (A) (A) (A) (A) (A)
                 (A) (A) (A) (A) (A) (A) (A) (A) (A) (A) (A) (A)
                 (A) (A) (A) (A) (A) (A) (A) (A) (A) (A) (A) (A)
                 (A) (A) (A) (A) (A) (A) (A) (A) (A) (A) (A) (A)
                 (A) (A) (A) (A) (A) (A) (A) (A) (A) (A) (A) (A)
                 (A) (A) (A) (A) (A) (A) (A) (A) (A) (A) (A) (A)
                 (A) (A) (A) (A) (A) (A) (A) (A) (A) (A) (A) (A)
                 (A) (A) (A) (A) (A) (A) (A) (A) (A) (A) (A) (A)
                 (A) (A) (A) (A) (A) (A) (A) (A) (A) (A) (A) (A)
                 (A) (A) (A) (A) (A) (A) (A) (A) (A) (A) (A) (A)
                 (A) (A) (A) (A) (A) (A) (A) (A) (A) (A) (A) (A)
                 (A) (A) (A) (A) (A) (A) (A) (A) (A) (A) (A) (A)
                 (A) (A) (A) (A) (A) (A) (A) (A) (A) (A) (A) (A)
                 (A) (A) (A) (A) (A) (A) (A) (A) (A) (A) (A) (A)
                 (A) (A) (A) (A) (A) (A) (A) (A) (A) (A) (A) (A)
                 (A) (A) (A) (A) (A) (A) (A) (A) (A) (A) (A) (A)
                 (A) (A) (A) (A) (A) (A) (A) (A) (A) (A) (A) (A)
                 (A) (A) (A) (A) (A) (A) (A) (A) (A) (A) (A) (A)
                 (A) (A) (A) (A) (A) (A) (A) (A) (A) (A) (A) (A)
                 (A) (A) (A) (A) (A) (A) (A) (A) (A) (A) (A) (A)
                 (A) (A) (A) (A) (A) (A) (A) (A) (A) (A) (A) (A)
                 (A) (A) (A) (A) (A) (A) (A) (A) (A) (A) (A) (A)
                 (A)
 Beta  Orbitals:
       Occupied  (A) (A) (A) (A) (A) (A) (A) (A) (A) (A) (A) (A)
                 (A) (A) (A) (A) (A) (A) (A) (A) (A) (A) (A) (A)
                 (A) (A) (A) (A) (A) (A) (A) (A) (A) (A) (A) (A)
                 (A) (A) (A) (A) (A) (A) (A) (A) (A) (A) (A) (A)
                 (A) (A) (A) (A) (A) (A) (A) (A) (A) (A) (A) (A)
                 (A) (A) (A) (A) (A) (A) (A) (A) (A) (A) (A) (A)
                 (A) (A) (A)
       Virtual   (A) (A) (A) (A) (A) (A) (A) (A) (A) (A) (A) (A)
                 (A) (A) (A) (A) (A) (A) (A) (A) (A) (A) (A) (A)
                 (A) (A) (A) (A) (A) (A) (A) (A) (A) (A) (A) (A)
                 (A) (A) (A) (A) (A) (A) (A) (A) (A) (A) (A) (A)
                 (A) (A) (A) (A) (A) (A) (A) (A) (A) (A) (A) (A)
                 (A) (A) (A) (A) (A) (A) (A) (A) (A) (A) (A) (A)
                 (A) (A) (A) (A) (A) (A) (A) (A) (A) (A) (A) (A)
                 (A) (A) (A) (A) (A) (A) (A) (A) (A) (A) (A) (A)
                 (A) (A) (A) (A) (A) (A) (A) (A) (A) (A) (A) (A)
                 (A) (A) (A) (A) (A) (A) (A) (A) (A) (A) (A) (A)
                 (A) (A) (A) (A) (A) (A) (A) (A) (A) (A) (A) (A)
                 (A) (A) (A) (A) (A) (A) (A) (A) (A) (A) (A) (A)
                 (A) (A) (A) (A) (A) (A) (A) (A) (A) (A) (A) (A)
                 (A) (A) (A) (A) (A) (A) (A) (A) (A) (A) (A) (A)
                 (A) (A) (A) (A) (A) (A) (A) (A) (A) (A) (A) (A)
                 (A) (A) (A) (A) (A) (A) (A) (A) (A) (A) (A) (A)
                 (A) (A) (A) (A) (A) (A) (A) (A) (A) (A) (A) (A)
                 (A) (A) (A) (A) (A) (A) (A) (A) (A) (A) (A) (A)
                 (A) (A) (A) (A) (A) (A) (A) (A) (A) (A) (A) (A)
                 (A) (A) (A) (A) (A) (A) (A) (A) (A) (A) (A) (A)
                 (A) (A) (A) (A) (A) (A) (A) (A) (A) (A) (A) (A)
                 (A) (A) (A) (A) (A) (A) (A) (A) (A) (A) (A) (A)
                 (A) (A) (A) (A) (A) (A) (A) (A) (A) (A) (A) (A)
                 (A) (A) (A) (A) (A) (A) (A) (A) (A) (A) (A) (A)
                 (A) (A) (A) (A) (A) (A) (A) (A) (A) (A) (A) (A)
                 (A) (A) (A) (A) (A) (A) (A) (A) (A) (A) (A) (A)
                 (A) (A) (A) (A) (A) (A) (A) (A) (A) (A) (A) (A)
                 (A) (A) (A) (A) (A) (A) (A) (A) (A) (A) (A) (A)
                 (A) (A) (A) (A) (A) (A) (A) (A) (A) (A) (A) (A)
                 (A) (A) (A) (A) (A) (A) (A) (A) (A) (A) (A) (A)
                 (A) (A) (A) (A) (A) (A) (A) (A) (A) (A) (A) (A)
                 (A) (A) (A) (A) (A) (A) (A) (A) (A) (A) (A) (A)
                 (A) (A) (A) (A) (A) (A) (A) (A) (A) (A) (A) (A)
                 (A) (A)
 The electronic state is 2-A.
 Alpha  occ. eigenvalues --  -18.99608 -18.99608 -14.25254 -14.25254 -10.16193
 Alpha  occ. eigenvalues --  -10.16193 -10.11056 -10.11056 -10.09642 -10.09642
 Alpha  occ. eigenvalues --  -10.09479 -10.09479 -10.09029 -10.09029 -10.08857
 Alpha  occ. eigenvalues --  -10.08857 -10.08797 -10.08797 -10.07625 -10.07625
 Alpha  occ. eigenvalues --  -10.05591 -10.05548  -0.91502  -0.91064  -0.84070
 Alpha  occ. eigenvalues --   -0.82795  -0.75126  -0.75091  -0.67477  -0.66439
 Alpha  occ. eigenvalues --   -0.65891  -0.64402  -0.64216  -0.59161  -0.55947
 Alpha  occ. eigenvalues --   -0.54628  -0.50666  -0.50211  -0.49703  -0.48564
 Alpha  occ. eigenvalues --   -0.43950  -0.42567  -0.41956  -0.41043  -0.37996
 Alpha  occ. eigenvalues --   -0.36774  -0.35804  -0.34655  -0.34520  -0.33364
 Alpha  occ. eigenvalues --   -0.33329  -0.32373  -0.31954  -0.31861  -0.31057
 Alpha  occ. eigenvalues --   -0.30213  -0.29877  -0.29743  -0.27193  -0.26743
 Alpha  occ. eigenvalues --   -0.25873  -0.25066  -0.24234  -0.23780  -0.23682
 Alpha  occ. eigenvalues --   -0.22437  -0.21573  -0.15462  -0.15407  -0.15400
 Alpha  occ. eigenvalues --   -0.15095  -0.14707  -0.12968  -0.12961  -0.07560
 Alpha  occ. eigenvalues --   -0.00994
 Alpha virt. eigenvalues --    0.07137   0.08482   0.08678   0.08915   0.09012
 Alpha virt. eigenvalues --    0.10115   0.10222   0.11095   0.11225   0.11593
 Alpha virt. eigenvalues --    0.12805   0.13333   0.13662   0.13737   0.14154
 Alpha virt. eigenvalues --    0.14718   0.15231   0.15568   0.16352   0.16541
 Alpha virt. eigenvalues --    0.16737   0.16975   0.17771   0.17956   0.19187
 Alpha virt. eigenvalues --    0.19269   0.19655   0.19672   0.19791   0.20240
 Alpha virt. eigenvalues --    0.21528   0.21807   0.21938   0.22460   0.22869
 Alpha virt. eigenvalues --    0.23207   0.23574   0.23729   0.24338   0.24867
 Alpha virt. eigenvalues --    0.25330   0.25460   0.25785   0.25894   0.25935
 Alpha virt. eigenvalues --    0.26270   0.26282   0.27516   0.27725   0.28001
 Alpha virt. eigenvalues --    0.28297   0.28812   0.28831   0.29117   0.29179
 Alpha virt. eigenvalues --    0.29737   0.30139   0.30196   0.30447   0.30756
 Alpha virt. eigenvalues --    0.30791   0.31643   0.32310   0.32670   0.32788
 Alpha virt. eigenvalues --    0.33142   0.33504   0.33886   0.33909   0.33910
 Alpha virt. eigenvalues --    0.34380   0.35081   0.35233   0.35317   0.35946
 Alpha virt. eigenvalues --    0.36008   0.36087   0.36674   0.36768   0.36776
 Alpha virt. eigenvalues --    0.37732   0.38870   0.39016   0.39304   0.39590
 Alpha virt. eigenvalues --    0.39864   0.40145   0.40540   0.41080   0.41536
 Alpha virt. eigenvalues --    0.41694   0.41799   0.42944   0.42946   0.43363
 Alpha virt. eigenvalues --    0.43941   0.43942   0.44540   0.44655   0.45397
 Alpha virt. eigenvalues --    0.46439   0.47032   0.47600   0.47611   0.48787
 Alpha virt. eigenvalues --    0.48906   0.49175   0.49251   0.50642   0.51693
 Alpha virt. eigenvalues --    0.52743   0.53030   0.53130   0.56233   0.56325
 Alpha virt. eigenvalues --    0.57483   0.59448   0.59614   0.61554   0.61757
 Alpha virt. eigenvalues --    0.63733   0.64738   0.67689   0.69143   0.70820
 Alpha virt. eigenvalues --    0.72515   0.73835   0.73918   0.78021   0.78027
 Alpha virt. eigenvalues --    0.78590   0.80221   0.80229   0.80920   0.81278
 Alpha virt. eigenvalues --    0.81820   0.81996   0.82302   0.82940   0.84057
 Alpha virt. eigenvalues --    0.84474   0.84512   0.84525   0.85025   0.85096
 Alpha virt. eigenvalues --    0.85320   0.85799   0.86853   0.87350   0.88061
 Alpha virt. eigenvalues --    0.89863   0.90258   0.90978   0.92075   0.92079
 Alpha virt. eigenvalues --    0.93196   0.93908   0.94743   0.95925   0.96404
 Alpha virt. eigenvalues --    0.97900   0.99235   0.99429   0.99697   1.00349
 Alpha virt. eigenvalues --    1.02581   1.02948   1.03603   1.04144   1.07701
 Alpha virt. eigenvalues --    1.08802   1.09372   1.09383   1.10534   1.11172
 Alpha virt. eigenvalues --    1.11568   1.11936   1.13010   1.15191   1.15613
 Alpha virt. eigenvalues --    1.17502   1.19694   1.20399   1.21580   1.21700
 Alpha virt. eigenvalues --    1.23098   1.23473   1.24496   1.25621   1.26546
 Alpha virt. eigenvalues --    1.27848   1.28195   1.30516   1.31341   1.32484
 Alpha virt. eigenvalues --    1.34005   1.34843   1.35146   1.35859   1.36072
 Alpha virt. eigenvalues --    1.37324   1.37770   1.38136   1.40167   1.40722
 Alpha virt. eigenvalues --    1.41229   1.42608   1.42821   1.44035   1.44055
 Alpha virt. eigenvalues --    1.44555   1.45110   1.45344   1.46055   1.47336
 Alpha virt. eigenvalues --    1.48157   1.49423   1.49564   1.49618   1.50501
 Alpha virt. eigenvalues --    1.50629   1.51104   1.52014   1.52730   1.52743
 Alpha virt. eigenvalues --    1.52991   1.53387   1.54189   1.54845   1.55500
 Alpha virt. eigenvalues --    1.58898   1.59064   1.59397   1.60348   1.64061
 Alpha virt. eigenvalues --    1.67154   1.68907   1.73463   1.73611   1.75206
 Alpha virt. eigenvalues --    1.79762   1.86689   1.87744   1.88145   1.89819
 Alpha virt. eigenvalues --    1.90775   1.91165   1.92381   1.94028   1.94756
 Alpha virt. eigenvalues --    1.96099   1.97579   1.98007   1.99740   2.01496
 Alpha virt. eigenvalues --    2.02171   2.02224   2.02525   2.02654   2.03204
 Alpha virt. eigenvalues --    2.05676   2.06569   2.06813   2.07659   2.08489
 Alpha virt. eigenvalues --    2.08533   2.09043   2.10231   2.11132   2.12684
 Alpha virt. eigenvalues --    2.12971   2.13175   2.13398   2.14511   2.16796
 Alpha virt. eigenvalues --    2.17161   2.18802   2.19191   2.20602   2.21245
 Alpha virt. eigenvalues --    2.22417   2.24461   2.24802   2.28003   2.29645
 Alpha virt. eigenvalues --    2.30040   2.31262   2.32971   2.37657   2.38422
 Alpha virt. eigenvalues --    2.40371   2.40727   2.40861   2.41349   2.43986
 Alpha virt. eigenvalues --    2.46024   2.46793   2.48143   2.48790   2.48936
 Alpha virt. eigenvalues --    2.49248   2.49440   2.50638   2.51489   2.51624
 Alpha virt. eigenvalues --    2.54950   2.57797   2.57912   2.58573   2.58676
 Alpha virt. eigenvalues --    2.58863   2.60798   2.62967   2.63159   2.63555
 Alpha virt. eigenvalues --    2.64064   2.64866   2.65730   2.68010   2.68220
 Alpha virt. eigenvalues --    2.68715   2.69976   2.70094   2.70272   2.72234
 Alpha virt. eigenvalues --    2.75285   2.75966   2.76849   2.77387   2.78128
 Alpha virt. eigenvalues --    2.79510   2.81448   2.83566   2.83827   2.83957
 Alpha virt. eigenvalues --    2.86431   2.86831   2.89891   2.90957   2.92995
 Alpha virt. eigenvalues --    2.94143   2.94666   2.97566   2.98639   3.06329
 Alpha virt. eigenvalues --    3.07991   3.09443   3.13121   3.14821   3.17797
 Alpha virt. eigenvalues --    3.19496   3.19849   3.20022   3.22594   3.28891
 Alpha virt. eigenvalues --    3.30447   3.31055   3.36872   3.36940   3.39382
 Alpha virt. eigenvalues --    3.40376   3.41279   3.42732   3.45222   3.46741
 Alpha virt. eigenvalues --    3.54410   3.56412   3.56704   3.63290   3.65843
 Alpha virt. eigenvalues --    3.66475   3.71044   3.71885   4.01251   4.01450
 Alpha virt. eigenvalues --    4.38846   4.40180   4.40557   4.42738   4.43803
 Alpha virt. eigenvalues --    4.46772   4.47283   4.49134   4.51887   4.54516
 Alpha virt. eigenvalues --    4.56886   4.59415   4.60527   4.63252   4.63882
 Alpha virt. eigenvalues --    4.72562   4.81812   4.89525   4.99347   5.02086
 Alpha virt. eigenvalues --    5.17676   5.25840
  Beta  occ. eigenvalues --  -18.99413 -18.99413 -14.25283 -14.25283 -10.16112
  Beta  occ. eigenvalues --  -10.16111 -10.10666 -10.10666 -10.09696 -10.09696
  Beta  occ. eigenvalues --  -10.09543 -10.09543 -10.08897 -10.08897 -10.08895
  Beta  occ. eigenvalues --  -10.08895 -10.08648 -10.08648 -10.07504 -10.07504
  Beta  occ. eigenvalues --  -10.05639 -10.05596  -0.91195  -0.90745  -0.83796
  Beta  occ. eigenvalues --   -0.82541  -0.74976  -0.74943  -0.67422  -0.66130
  Beta  occ. eigenvalues --   -0.65634  -0.64253  -0.64082  -0.58730  -0.55316
  Beta  occ. eigenvalues --   -0.54489  -0.50559  -0.50130  -0.49553  -0.48380
  Beta  occ. eigenvalues --   -0.43841  -0.42475  -0.41847  -0.40960  -0.37769
  Beta  occ. eigenvalues --   -0.36556  -0.35670  -0.34592  -0.34456  -0.33247
  Beta  occ. eigenvalues --   -0.32584  -0.32271  -0.31904  -0.31814  -0.30973
  Beta  occ. eigenvalues --   -0.30023  -0.29683  -0.28979  -0.26630  -0.26266
  Beta  occ. eigenvalues --   -0.25754  -0.24925  -0.24122  -0.23739  -0.23617
  Beta  occ. eigenvalues --   -0.21322  -0.20373  -0.15060  -0.14979  -0.14769
  Beta  occ. eigenvalues --   -0.14532  -0.14510  -0.13019  -0.12803  -0.06013
  Beta virt. eigenvalues --    0.03921   0.08220   0.08479   0.08672   0.09192
  Beta virt. eigenvalues --    0.09295   0.10117   0.10223   0.11216   0.11577
  Beta virt. eigenvalues --    0.12056   0.12803   0.13324   0.13683   0.13874
  Beta virt. eigenvalues --    0.14662   0.15240   0.15246   0.15588   0.16358
  Beta virt. eigenvalues --    0.16619   0.16878   0.16973   0.17791   0.17966
  Beta virt. eigenvalues --    0.19179   0.19309   0.19662   0.19690   0.19911
  Beta virt. eigenvalues --    0.20790   0.21527   0.21842   0.22205   0.22612
  Beta virt. eigenvalues --    0.22890   0.23213   0.23585   0.23737   0.24598
  Beta virt. eigenvalues --    0.24896   0.25471   0.25495   0.25807   0.25894
  Beta virt. eigenvalues --    0.26279   0.26345   0.27002   0.27547   0.27740
  Beta virt. eigenvalues --    0.28029   0.28302   0.28919   0.28996   0.29109
  Beta virt. eigenvalues --    0.29267   0.29778   0.30220   0.30495   0.30504
  Beta virt. eigenvalues --    0.30835   0.31348   0.31687   0.32723   0.32773
  Beta virt. eigenvalues --    0.32814   0.33169   0.33628   0.33952   0.33959
  Beta virt. eigenvalues --    0.33972   0.34438   0.35126   0.35344   0.35400
  Beta virt. eigenvalues --    0.35984   0.36048   0.36155   0.36759   0.36871
  Beta virt. eigenvalues --    0.36978   0.37848   0.38964   0.39053   0.39462
  Beta virt. eigenvalues --    0.39647   0.40035   0.40195   0.40617   0.41146
  Beta virt. eigenvalues --    0.41700   0.41740   0.41846   0.43028   0.43112
  Beta virt. eigenvalues --    0.43429   0.44071   0.44092   0.44625   0.44708
  Beta virt. eigenvalues --    0.45447   0.46585   0.47213   0.47678   0.47763
  Beta virt. eigenvalues --    0.48857   0.49077   0.49339   0.49415   0.50712
  Beta virt. eigenvalues --    0.51727   0.52779   0.53060   0.53227   0.56346
  Beta virt. eigenvalues --    0.56460   0.57572   0.59512   0.59697   0.61609
  Beta virt. eigenvalues --    0.61888   0.63870   0.64899   0.67760   0.69233
  Beta virt. eigenvalues --    0.70937   0.72662   0.73978   0.74040   0.78238
  Beta virt. eigenvalues --    0.78269   0.78775   0.80289   0.80341   0.80975
  Beta virt. eigenvalues --    0.82058   0.82067   0.82086   0.82251   0.83475
  Beta virt. eigenvalues --    0.84304   0.84531   0.84597   0.85108   0.85191
  Beta virt. eigenvalues --    0.85448   0.85519   0.86068   0.87266   0.87430
  Beta virt. eigenvalues --    0.88127   0.90028   0.90313   0.91041   0.92507
  Beta virt. eigenvalues --    0.92826   0.93304   0.94170   0.94895   0.95983
  Beta virt. eigenvalues --    0.96528   0.97958   0.99276   0.99478   1.00329
  Beta virt. eigenvalues --    1.00440   1.02585   1.02936   1.03666   1.04237
  Beta virt. eigenvalues --    1.07783   1.08852   1.09414   1.09423   1.10587
  Beta virt. eigenvalues --    1.11286   1.11604   1.12000   1.13052   1.15284
  Beta virt. eigenvalues --    1.15657   1.17635   1.19751   1.20446   1.21688
  Beta virt. eigenvalues --    1.21863   1.23226   1.23520   1.24655   1.25833
  Beta virt. eigenvalues --    1.26603   1.27847   1.28418   1.30584   1.31424
  Beta virt. eigenvalues --    1.32519   1.34558   1.34986   1.35426   1.35925
  Beta virt. eigenvalues --    1.36322   1.37440   1.38270   1.38381   1.40754
  Beta virt. eigenvalues --    1.41210   1.41281   1.42951   1.43071   1.44149
  Beta virt. eigenvalues --    1.44315   1.44761   1.45346   1.45465   1.46351
  Beta virt. eigenvalues --    1.47647   1.48288   1.49581   1.49731   1.49895
  Beta virt. eigenvalues --    1.50648   1.50799   1.51436   1.52347   1.52946
  Beta virt. eigenvalues --    1.53058   1.53061   1.53641   1.54399   1.54978
  Beta virt. eigenvalues --    1.55758   1.58963   1.59166   1.59532   1.60458
  Beta virt. eigenvalues --    1.64167   1.67341   1.69199   1.73619   1.73838
  Beta virt. eigenvalues --    1.75462   1.80174   1.86985   1.87848   1.88297
  Beta virt. eigenvalues --    1.90232   1.91240   1.91410   1.92443   1.94073
  Beta virt. eigenvalues --    1.94998   1.96582   1.97854   1.98255   1.99980
  Beta virt. eigenvalues --    2.01549   2.02241   2.02270   2.02824   2.02969
  Beta virt. eigenvalues --    2.03333   2.05896   2.06572   2.06850   2.07823
  Beta virt. eigenvalues --    2.08648   2.08694   2.09251   2.10417   2.11287
  Beta virt. eigenvalues --    2.12877   2.13157   2.13468   2.13593   2.14757
  Beta virt. eigenvalues --    2.16877   2.17364   2.18841   2.19385   2.20876
  Beta virt. eigenvalues --    2.21352   2.22659   2.24735   2.25433   2.28372
  Beta virt. eigenvalues --    2.29897   2.30259   2.31441   2.33210   2.37965
  Beta virt. eigenvalues --    2.38719   2.40612   2.40944   2.41089   2.41567
  Beta virt. eigenvalues --    2.44381   2.46197   2.47242   2.48306   2.48898
  Beta virt. eigenvalues --    2.49167   2.49265   2.49463   2.51289   2.51559
  Beta virt. eigenvalues --    2.51694   2.55129   2.58001   2.58291   2.58662
  Beta virt. eigenvalues --    2.58714   2.58874   2.61031   2.63189   2.63394
  Beta virt. eigenvalues --    2.63721   2.64331   2.65024   2.65777   2.68087
  Beta virt. eigenvalues --    2.68324   2.69059   2.70073   2.70208   2.70420
  Beta virt. eigenvalues --    2.72476   2.75587   2.76081   2.77197   2.77706
  Beta virt. eigenvalues --    2.78284   2.79605   2.81571   2.83687   2.83963
  Beta virt. eigenvalues --    2.84143   2.86700   2.86998   2.90049   2.91393
  Beta virt. eigenvalues --    2.93106   2.94591   2.94870   2.97664   2.98712
  Beta virt. eigenvalues --    3.06483   3.08133   3.09755   3.13433   3.14932
  Beta virt. eigenvalues --    3.17850   3.19668   3.19935   3.20109   3.22669
  Beta virt. eigenvalues --    3.29049   3.30577   3.31219   3.36886   3.36957
  Beta virt. eigenvalues --    3.39427   3.40444   3.41361   3.42791   3.45286
  Beta virt. eigenvalues --    3.46819   3.54499   3.56475   3.56759   3.63398
  Beta virt. eigenvalues --    3.65875   3.66508   3.71130   3.71930   4.01313
  Beta virt. eigenvalues --    4.01514   4.38887   4.40318   4.40673   4.42813
  Beta virt. eigenvalues --    4.43855   4.46887   4.47455   4.49400   4.51989
  Beta virt. eigenvalues --    4.54979   4.56935   4.59563   4.60680   4.63431
  Beta virt. eigenvalues --    4.64017   4.72978   4.82140   4.89660   4.99586
  Beta virt. eigenvalues --    5.02332   5.17884   5.26062
          Condensed to atoms (all electrons):
              1          2          3          4          5          6
     1  N    7.522440   0.885051  -0.244349  -0.127470  -0.577282   0.033270
     2  C    0.885051  10.464059  -1.633059  -0.827823  -3.142245  -0.022105
     3  C   -0.244349  -1.633059   8.564962  -0.163642  -0.125425   0.119310
     4  C   -0.127470  -0.827823  -0.163642  10.668424   0.656236  -0.125425
     5  C   -0.577282  -3.142245  -0.125425   0.656236  10.668429  -0.163643
     6  C    0.033270  -0.022105   0.119310  -0.125425  -0.163643   8.564989
     7  C    0.052977   0.759407  -0.022106  -3.142239  -0.827819  -1.633075
     8  N    0.009693   0.052978   0.033269  -0.577285  -0.127469  -0.244350
     9  O   -0.134706   0.091270   0.019689  -0.032579   0.074910   0.027330
    10  O   -0.005235  -0.022060   0.027331   0.074913  -0.032580   0.019689
    11  H    0.000271   0.014760  -0.005984   0.006252   0.065535  -0.073312
    12  H    0.292884  -0.020205  -0.073311   0.065534   0.006254  -0.005984
    13  C   -0.145794  -1.253263  -0.254733   0.189140   0.477639  -2.141259
    14  C    0.111200   0.625239   0.034413   0.326139   0.652938  -1.197511
    15  C   -0.034887  -0.210024   0.000646  -0.677258  -1.345554   2.988418
    16  C    0.004535  -0.171387   0.089548   0.232543   0.030609  -0.042260
    17  H    0.001558   0.016546   0.013723   0.022274   0.035190   0.000052
    18  C    0.003744   0.138858  -0.021007  -0.081524   0.308540  -0.487161
    19  H   -0.000048  -0.004171   0.000673   0.000740   0.010428   0.094939
    20  C    0.001251  -0.023849  -0.001251  -0.037259   0.010262  -0.039529
    21  H   -0.000010  -0.002229  -0.000033   0.000251   0.000147   0.000103
    22  H    0.000000  -0.000182  -0.000013   0.000562  -0.002040  -0.007785
    23  H    0.000000   0.000035  -0.000011  -0.000144  -0.001356  -0.002736
    24  C   -0.221400  -0.082085  -2.141259   0.477650   0.189121  -0.254739
    25  C    0.115282  -1.257422   2.988402  -1.345573  -0.677261   0.000642
    26  C   -0.241261   1.138760  -1.197483   0.652941   0.326136   0.034419
    27  C    0.057967   0.250290  -0.487152   0.308537  -0.081519  -0.021007
    28  H   -0.013408   0.003888   0.094938   0.010428   0.000741   0.000673
    29  C    0.092540  -0.195212  -0.042273   0.030617   0.232555   0.089551
    30  H    0.000134  -0.001642   0.000052   0.035190   0.022275   0.013723
    31  C   -0.015846   0.012444  -0.039528   0.010261  -0.037261  -0.001251
    32  H    0.000652  -0.000080  -0.007785  -0.002040   0.000562  -0.000013
    33  H    0.000087  -0.000019   0.000103   0.000147   0.000251  -0.000033
    34  H    0.000011  -0.000028  -0.002736  -0.001356  -0.000144  -0.000011
              7          8          9         10         11         12
     1  N    0.052977   0.009693  -0.134706  -0.005235   0.000271   0.292884
     2  C    0.759407   0.052978   0.091270  -0.022060   0.014760  -0.020205
     3  C   -0.022106   0.033269   0.019689   0.027331  -0.005984  -0.073311
     4  C   -3.142239  -0.577285  -0.032579   0.074913   0.006252   0.065534
     5  C   -0.827819  -0.127469   0.074910  -0.032580   0.065535   0.006254
     6  C   -1.633075  -0.244350   0.027330   0.019689  -0.073312  -0.005984
     7  C   10.464059   0.885054  -0.022060   0.091269  -0.020204   0.014759
     8  N    0.885054   7.522439  -0.005235  -0.134707   0.292884   0.000271
     9  O   -0.022060  -0.005235   8.602385   0.000303   0.000013   0.003591
    10  O    0.091269  -0.134707   0.000303   8.602387   0.003591   0.000013
    11  H   -0.020204   0.292884   0.000013   0.003591   0.444597   0.000000
    12  H    0.014759   0.000271   0.003591   0.000013   0.000000   0.444597
    13  C   -0.082093  -0.221401   0.272001   0.035358  -0.157161  -0.005196
    14  C    1.138757  -0.241261  -0.211788  -0.012838  -0.049328   0.004467
    15  C   -1.257418   0.115283   0.043006  -0.009007   0.116016  -0.000804
    16  C   -0.195211   0.092540  -0.105586   0.000107   0.002947   0.000754
    17  H   -0.001642   0.000134  -0.005590   0.000007   0.000002  -0.000005
    18  C    0.250296   0.057968   0.000088  -0.006080   0.084737  -0.000019
    19  H    0.003888  -0.013409   0.000014   0.000184   0.005738   0.000000
    20  C    0.012443  -0.015846  -0.010549   0.000097   0.001857  -0.000005
    21  H   -0.000019   0.000087   0.000276   0.000000   0.000000   0.000000
    22  H   -0.000080   0.000652  -0.000001   0.000000  -0.000002   0.000000
    23  H   -0.000028   0.000011   0.000010   0.000000   0.000000   0.000000
    24  C   -1.253260  -0.145796   0.035357   0.272005  -0.005196  -0.157160
    25  C   -0.210026  -0.034888  -0.009006   0.043008  -0.000804   0.116016
    26  C    0.625244   0.111201  -0.012838  -0.211791   0.004467  -0.049328
    27  C    0.138856   0.003744  -0.006080   0.000088  -0.000019   0.084736
    28  H   -0.004171  -0.000048   0.000184   0.000014   0.000000   0.005738
    29  C   -0.171392   0.004535   0.000107  -0.105591   0.000754   0.002947
    30  H    0.016547   0.001558   0.000007  -0.005590  -0.000005   0.000002
    31  C   -0.023848   0.001251   0.000097  -0.010549  -0.000005   0.001857
    32  H   -0.000182   0.000000   0.000000  -0.000001   0.000000  -0.000002
    33  H   -0.002229  -0.000010   0.000000   0.000276   0.000000   0.000000
    34  H    0.000035   0.000000   0.000000   0.000010   0.000000   0.000000
             13         14         15         16         17         18
     1  N   -0.145794   0.111200  -0.034887   0.004535   0.001558   0.003744
     2  C   -1.253263   0.625239  -0.210024  -0.171387   0.016546   0.138858
     3  C   -0.254733   0.034413   0.000646   0.089548   0.013723  -0.021007
     4  C    0.189140   0.326139  -0.677258   0.232543   0.022274  -0.081524
     5  C    0.477639   0.652938  -1.345554   0.030609   0.035190   0.308540
     6  C   -2.141259  -1.197511   2.988418  -0.042260   0.000052  -0.487161
     7  C   -0.082093   1.138757  -1.257418  -0.195211  -0.001642   0.250296
     8  N   -0.221401  -0.241261   0.115283   0.092540   0.000134   0.057968
     9  O    0.272001  -0.211788   0.043006  -0.105586  -0.005590   0.000088
    10  O    0.035358  -0.012838  -0.009007   0.000107   0.000007  -0.006080
    11  H   -0.157161  -0.049328   0.116016   0.002947   0.000002   0.084737
    12  H   -0.005196   0.004467  -0.000804   0.000754  -0.000005  -0.000019
    13  C   19.460107  -8.649833  -3.628967   2.672109  -0.063144  -0.276556
    14  C   -8.649833  39.718761 -18.457598 -12.106385   0.181061   2.966703
    15  C   -3.628967 -18.457598  31.670507   2.838861  -0.060544  -6.141518
    16  C    2.672109 -12.106385   2.838861  14.135540   0.173778  -0.756821
    17  H   -0.063144   0.181061  -0.060544   0.173778   0.528253   0.000564
    18  C   -0.276556   2.966703  -6.141518  -0.756821   0.000564   9.249174
    19  H   -0.043151  -0.000407   0.179600  -0.019107  -0.000134   0.062940
    20  C   -1.108801   1.668422  -0.412614  -0.618713  -0.011724   0.768884
    21  H    0.027565  -0.051566  -0.019170   0.364679  -0.005738   0.014728
    22  H    0.027758  -0.015001   0.061963   0.008305   0.000015   0.230345
    23  H   -0.032928   0.077012   0.073449  -0.069378  -0.000163  -0.058105
    24  C    0.309493  -0.055057  -0.078941   0.000485  -0.000672  -0.006545
    25  C   -0.078938   0.136986  -0.078427   0.009038   0.000891   0.002830
    26  C   -0.055061  -0.142790   0.136987  -0.000859  -0.000585  -0.003945
    27  C   -0.006545  -0.003945   0.002830   0.000705   0.000039  -0.000046
    28  H   -0.000445   0.000309  -0.000038   0.000016   0.000000  -0.000001
    29  C    0.000486  -0.000859   0.009039   0.003098   0.000005   0.000705
    30  H   -0.000672  -0.000585   0.000891   0.000005   0.000000   0.000039
    31  C   -0.000205   0.000643  -0.000494  -0.000216  -0.000002  -0.000074
    32  H    0.000003  -0.000001   0.000000   0.000000   0.000000   0.000000
    33  H    0.000000   0.000002  -0.000001   0.000000   0.000000   0.000000
    34  H    0.000000   0.000000   0.000000   0.000000   0.000000   0.000000
             19         20         21         22         23         24
     1  N   -0.000048   0.001251  -0.000010   0.000000   0.000000  -0.221400
     2  C   -0.004171  -0.023849  -0.002229  -0.000182   0.000035  -0.082085
     3  C    0.000673  -0.001251  -0.000033  -0.000013  -0.000011  -2.141259
     4  C    0.000740  -0.037259   0.000251   0.000562  -0.000144   0.477650
     5  C    0.010428   0.010262   0.000147  -0.002040  -0.001356   0.189121
     6  C    0.094939  -0.039529   0.000103  -0.007785  -0.002736  -0.254739
     7  C    0.003888   0.012443  -0.000019  -0.000080  -0.000028  -1.253260
     8  N   -0.013409  -0.015846   0.000087   0.000652   0.000011  -0.145796
     9  O    0.000014  -0.010549   0.000276  -0.000001   0.000010   0.035357
    10  O    0.000184   0.000097   0.000000   0.000000   0.000000   0.272005
    11  H    0.005738   0.001857   0.000000  -0.000002   0.000000  -0.005196
    12  H    0.000000  -0.000005   0.000000   0.000000   0.000000  -0.157160
    13  C   -0.043151  -1.108801   0.027565   0.027758  -0.032928   0.309493
    14  C   -0.000407   1.668422  -0.051566  -0.015001   0.077012  -0.055057
    15  C    0.179600  -0.412614  -0.019170   0.061963   0.073449  -0.078941
    16  C   -0.019107  -0.618713   0.364679   0.008305  -0.069378   0.000485
    17  H   -0.000134  -0.011724  -0.005738   0.000015  -0.000163  -0.000672
    18  C    0.062940   0.768884   0.014728   0.230345  -0.058105  -0.006545
    19  H    0.649163   0.004473   0.000019  -0.006999  -0.000196  -0.000445
    20  C    0.004473   5.661959  -0.032545  -0.003125   0.316038  -0.000205
    21  H    0.000019  -0.032545   0.602908  -0.000182  -0.005776   0.000000
    22  H   -0.006999  -0.003125  -0.000182   0.614709  -0.005994   0.000003
    23  H   -0.000196   0.316038  -0.005776  -0.005994   0.616636   0.000000
    24  C   -0.000445  -0.000205   0.000000   0.000003   0.000000  19.460171
    25  C   -0.000038  -0.000494  -0.000001   0.000000   0.000000  -3.629055
    26  C    0.000309   0.000643   0.000002  -0.000001   0.000000  -8.649807
    27  C   -0.000001  -0.000074   0.000000   0.000000   0.000000  -0.276536
    28  H    0.000000   0.000000   0.000000   0.000000   0.000000  -0.043150
    29  C    0.000016  -0.000216   0.000000   0.000000   0.000000   2.672105
    30  H    0.000000  -0.000002   0.000000   0.000000   0.000000  -0.063144
    31  C    0.000000   0.000023   0.000000   0.000000   0.000000  -1.108816
    32  H    0.000000   0.000000   0.000000   0.000000   0.000000   0.027758
    33  H    0.000000   0.000000   0.000000   0.000000   0.000000   0.027565
    34  H    0.000000   0.000000   0.000000   0.000000   0.000000  -0.032929
             25         26         27         28         29         30
     1  N    0.115282  -0.241261   0.057967  -0.013408   0.092540   0.000134
     2  C   -1.257422   1.138760   0.250290   0.003888  -0.195212  -0.001642
     3  C    2.988402  -1.197483  -0.487152   0.094938  -0.042273   0.000052
     4  C   -1.345573   0.652941   0.308537   0.010428   0.030617   0.035190
     5  C   -0.677261   0.326136  -0.081519   0.000741   0.232555   0.022275
     6  C    0.000642   0.034419  -0.021007   0.000673   0.089551   0.013723
     7  C   -0.210026   0.625244   0.138856  -0.004171  -0.171392   0.016547
     8  N   -0.034888   0.111201   0.003744  -0.000048   0.004535   0.001558
     9  O   -0.009006  -0.012838  -0.006080   0.000184   0.000107   0.000007
    10  O    0.043008  -0.211791   0.000088   0.000014  -0.105591  -0.005590
    11  H   -0.000804   0.004467  -0.000019   0.000000   0.000754  -0.000005
    12  H    0.116016  -0.049328   0.084736   0.005738   0.002947   0.000002
    13  C   -0.078938  -0.055061  -0.006545  -0.000445   0.000486  -0.000672
    14  C    0.136986  -0.142790  -0.003945   0.000309  -0.000859  -0.000585
    15  C   -0.078427   0.136987   0.002830  -0.000038   0.009039   0.000891
    16  C    0.009038  -0.000859   0.000705   0.000016   0.003098   0.000005
    17  H    0.000891  -0.000585   0.000039   0.000000   0.000005   0.000000
    18  C    0.002830  -0.003945  -0.000046  -0.000001   0.000705   0.000039
    19  H   -0.000038   0.000309  -0.000001   0.000000   0.000016   0.000000
    20  C   -0.000494   0.000643  -0.000074   0.000000  -0.000216  -0.000002
    21  H   -0.000001   0.000002   0.000000   0.000000   0.000000   0.000000
    22  H    0.000000  -0.000001   0.000000   0.000000   0.000000   0.000000
    23  H    0.000000   0.000000   0.000000   0.000000   0.000000   0.000000
    24  C   -3.629055  -8.649807  -0.276536  -0.043150   2.672105  -0.063144
    25  C   31.670662 -18.457659  -6.141486   0.179601   2.838852  -0.060545
    26  C  -18.457659  39.718820   2.966709  -0.000406 -12.106454   0.181058
    27  C   -6.141486   2.966709   9.249118   0.062939  -0.756826   0.000564
    28  H    0.179601  -0.000406   0.062939   0.649162  -0.019107  -0.000134
    29  C    2.838852 -12.106454  -0.756826  -0.019107  14.135636   0.173782
    30  H   -0.060545   0.181058   0.000564  -0.000134   0.173782   0.528253
    31  C   -0.412602   1.668430   0.768883   0.004473  -0.618726  -0.011725
    32  H    0.061962  -0.015001   0.230346  -0.006999   0.008305   0.000015
    33  H   -0.019170  -0.051566   0.014728   0.000019   0.364680  -0.005738
    34  H    0.073449   0.077012  -0.058105  -0.000196  -0.069378  -0.000163
             31         32         33         34
     1  N   -0.015846   0.000652   0.000087   0.000011
     2  C    0.012444  -0.000080  -0.000019  -0.000028
     3  C   -0.039528  -0.007785   0.000103  -0.002736
     4  C    0.010261  -0.002040   0.000147  -0.001356
     5  C   -0.037261   0.000562   0.000251  -0.000144
     6  C   -0.001251  -0.000013  -0.000033  -0.000011
     7  C   -0.023848  -0.000182  -0.002229   0.000035
     8  N    0.001251   0.000000  -0.000010   0.000000
     9  O    0.000097   0.000000   0.000000   0.000000
    10  O   -0.010549  -0.000001   0.000276   0.000010
    11  H   -0.000005   0.000000   0.000000   0.000000
    12  H    0.001857  -0.000002   0.000000   0.000000
    13  C   -0.000205   0.000003   0.000000   0.000000
    14  C    0.000643  -0.000001   0.000002   0.000000
    15  C   -0.000494   0.000000  -0.000001   0.000000
    16  C   -0.000216   0.000000   0.000000   0.000000
    17  H   -0.000002   0.000000   0.000000   0.000000
    18  C   -0.000074   0.000000   0.000000   0.000000
    19  H    0.000000   0.000000   0.000000   0.000000
    20  C    0.000023   0.000000   0.000000   0.000000
    21  H    0.000000   0.000000   0.000000   0.000000
    22  H    0.000000   0.000000   0.000000   0.000000
    23  H    0.000000   0.000000   0.000000   0.000000
    24  C   -1.108816   0.027758   0.027565  -0.032929
    25  C   -0.412602   0.061962  -0.019170   0.073449
    26  C    1.668430  -0.015001  -0.051566   0.077012
    27  C    0.768883   0.230346   0.014728  -0.058105
    28  H    0.004473  -0.006999   0.000019  -0.000196
    29  C   -0.618726   0.008305   0.364680  -0.069378
    30  H   -0.011725   0.000015  -0.005738  -0.000163
    31  C    5.661965  -0.003125  -0.032545   0.316038
    32  H   -0.003125   0.614709  -0.000182  -0.005994
    33  H   -0.032545  -0.000182   0.602908  -0.005776
[...]
 -0.00288206,0.00009531,-0.00000094,0.00002098,-0.00001308,0.00000508,0
 .00009564,-0.00003495,-0.00000272,-0.00022223,0.00025361,-0.00006024,-
 0.00002809,-0.00030802,0.00003092,-0.00007223,0.00021029,0.00002445,-0
 .00004390,-0.00007404,-0.00001182,-0.00005806,-0.00002359,0.00000018,0
 .00014206,-0.00000682,-0.00000985,-0.00001034,0.00001454,-0.00000600,0
 .00017870,0.00005021,-0.00001355,-0.00003382,-0.00002811,0.00000301,0.
 00000724,-0.00000759,0.00000022,0.00000685,-0.00000476,0.00000127,0.03
 468028,0.01188486,-0.00001863,-0.01965105,-0.00477009,0.00007923,0.065
 96951,-0.13274501,0.00000372,0.00183821,-0.05513624,-0.00001557,-0.000
 55738,0.00041607,-0.00000305,-0.03023253,0.71111804,0.00001774,-0.0000
 1670,0.00106130,0.00004886,-0.00003758,0.00013500,0.00028703,0.0000915
 2,0.00427357,-0.00015093,-0.00009266,-0.00004008,-0.00010820,-0.000068
 95,-0.00032254,0.00010803,0.00010709,0.00014611,0.00007223,-0.00004622
 ,-0.00015583,0.00003455,-0.00002977,-0.00018578,-0.00000730,0.00001363
 ,-0.00021672,-0.00002506,0.00003415,0.00023125,0.00000622,-0.00000480,
 -0.00000594,0.00000960,0.00000198,-0.00002696,-0.00012493,0.00002522,-
 0.00016053,0.00000421,-0.00003599,0.00034513,0.00005409,0.00002646,0.0
 0011218,0.00003401,0.00000800,-0.00020161,-0.00000862,-0.00000910,0.00
 000167,-0.00005740,0.00006172,-0.00006817,0.00000418,-0.00000434,-0.00
 000336,0.00000782,-0.00006024,0.00008423,-0.00000090,0.00000360,0.0000
 0248,0.00000014,0.00000190,-0.00000484,0.00000102,-0.00000097,-0.00000
 073,-0.00032186,0.00006515,0.00498764,0.00009648,0.00007278,-0.0054142
 8,0.00004983,-0.00011229,-0.05905028,-0.00007219,0.00013540,0.00696749
 ,0.00000499,-0.00000211,-0.00049488,-0.00002694,-0.00003986,0.13036423
 ,0.00030492,-0.00094137,0.00000044,-0.00013040,-0.00001913,-0.00000354
 ,0.00053601,0.00183547,0.00000706,-0.00049799,-0.00209638,-0.00000096,
 -0.00106473,-0.00034105,-0.00000078,0.00043145,0.00089684,0.00001063,-
 0.00740122,0.00678033,-0.00000184,0.00240571,-0.00089813,-0.00000442,0
 .00005664,-0.00012952,-0.00000066,0.00257488,-0.00362530,-0.00000053,-
 0.00012052,0.00002562,0.00000098,0.00018283,-0.00000984,-0.00000019,-0
 .00021927,-0.00012641,-0.00000978,0.00006250,-0.00011430,0.00000574,0.
 00006870,0.00016359,0.00000437,-0.00004986,-0.00008551,-0.00000238,-0.
 00001794,-0.00000829,0.00000001,-0.00004735,0.00005257,-0.00000144,-0.
 00002002,-0.00003520,-0.00000120,0.00006533,-0.00000806,-0.00000216,0.
 00000065,-0.00000984,0.00000050,0.00000375,0.00000351,-0.00000003,0.00
 000943,-0.00000521,0.00000009,0.01434671,0.01115638,-0.00000257,-0.001
 67396,0.00265404,0.00001309,-0.17503400,-0.13695651,0.00000395,0.00035
 057,0.00064695,-0.00000277,0.00060582,0.00104879,-0.00000029,-0.014134
 72,-0.02282737,-0.00000742,0.18230503,0.00019536,0.00003718,0.00000069
 ,-0.00012236,-0.00000540,-0.00000490,-0.00087177,0.00081281,0.00000999
 ,0.00060713,-0.00101593,-0.00000122,-0.00033864,-0.00031780,-0.0000010
 2,0.00006233,0.00062695,0.00001507,-0.00091451,0.00384965,-0.00000278,
 0.00132998,-0.00076295,-0.00000633,0.00003635,0.00000964,-0.00000109,-
 0.00018058,-0.00433440,-0.00000073,-0.00006244,0.00001820,0.00000145,-
 0.00010000,0.00008688,-0.00000021,0.00005302,-0.00010457,-0.00001388,-
 0.00004045,-0.00003450,0.00000805,-0.00004889,0.00007618,0.00000619,0.
 00005206,-0.00004806,-0.00000340,-0.00000741,-0.00001458,0.,0.00001371
 ,0.00003371,-0.00000200,-0.00000623,-0.00002319,-0.00000171,-0.0000169
 5,-0.00002351,-0.00000302,-0.00000795,0.00000091,0.00000072,-0.0000069
 6,-0.00000679,-0.00000004,-0.00000265,-0.00000267,0.00000014,-0.017959
 54,-0.01739746,-0.00000279,0.00272022,-0.00360543,0.00001797,-0.135792
 93,-0.22696876,0.00000403,0.00128191,-0.00029861,-0.00000391,-0.000937
 06,-0.00089237,-0.00000037,0.00700545,0.01068898,-0.00001105,0.1413753
 3,0.23730650,0.00000070,-0.00000065,-0.00036373,0.00000146,-0.00000152
 ,-0.00004046,0.00001128,0.00000394,-0.00219487,-0.00000620,-0.00000389
 ,-0.00041269,-0.00000362,-0.00000218,-0.00017124,0.00000371,0.00000342
 ,0.00012615,0.00000357,-0.00000188,0.00061243,0.00000121,-0.00000155,0
 .00029533,-0.00000035,0.00000058,0.00007981,-0.00000097,0.00000155,-0.
 00211529,0.00000026,-0.00000011,0.00002707,0.00000044,0.00000003,0.000
 01794,-0.00000488,0.00000022,-0.00004023,0.00000062,0.00000031,-0.0000
 2486,0.00000306,-0.00000017,0.00001558,0.00000068,0.00000084,0.0000017
 7,-0.00000031,-0.00000030,0.00000613,-0.00000307,0.00000195,-0.0000126
 1,0.00000016,-0.00000010,0.00000634,-0.00000016,-0.00000218,-0.0000011
 7,0.00000012,0.00000018,0.00000330,0.00000010,0.00000019,0.00000244,0.
 00000009,0.00000001,0.00000239,-0.00001303,0.00000277,0.00396895,0.000
 00363,0.00000420,0.00582420,0.00000494,-0.00000306,-0.03975746,-0.0000
 0257,0.00000476,-0.00074307,0.00000013,-0.00000026,-0.00009492,0.,-0.0
 0000138,0.00355731,-0.00000358,-0.00000309,0.02913635,0.00230575,-0.00
 129070,-0.00000247,-0.00126725,-0.00510902,0.00002866,-0.01044735,0.00
 092442,-0.00005937,0.00323065,0.00102158,0.00000802,0.00052773,0.00381
 549,0.00000585,-0.00375234,0.00100267,-0.00008267,-0.00263354,0.001335
 52,0.00002029,0.00221193,-0.00140716,0.00002870,-0.00123995,0.00352286
 ,0.00000186,0.00170209,-0.00207393,0.00000118,0.00004855,0.00008917,-0
 .00000622,-0.00014865,0.00003250,0.00000318,0.00310387,-0.00081991,0.0
 0007333,-0.00086389,0.00123437,-0.00003792,-0.00086545,-0.00078078,-0.
 00003005,0.00091980,0.00021449,0.00001450,0.00003291,-0.00004662,-0.00
 000020,0.00027517,-0.00013148,0.00001179,0.00004319,-0.00009161,0.0000
 0750,-0.00118039,-0.00013181,0.00001651,0.00000086,0.00013656,-0.00000
 364,-0.00009278,-0.00007917,-0.00000020,-0.00009935,0.00001209,-0.0000
 0141,0.01027622,-0.00995137,0.00002083,-0.01525333,0.03299178,-0.00009
 502,-0.04697576,-0.01493188,-0.00000577,-0.14436100,0.09556281,0.00002
 150,-0.00561779,0.00102580,0.00000383,-0.20212266,-0.12499675,0.000056
 81,-0.00444300,0.00227736,0.00000261,0.72179260,-0.00101566,0.00134399
 ,0.00000404,0.00046115,-0.00057539,-0.00003766,0.00095463,0.00154453,0
 .00007586,0.00004774,-0.00026119,-0.00001072,-0.00006342,0.00028217,-0
 .00000745,0.00012218,0.00046383,0.00010830,0.00053819,0.00065881,-0.00
 002292,0.00003762,0.00004243,-0.00004224,-0.00039321,0.00096515,-0.000
 00487,0.00001101,-0.00017823,-0.00000307,-0.00001082,-0.00003081,0.000
 00935,-0.00048822,0.00033783,-0.00000300,0.00025857,0.00026561,-0.0000
 9924,-0.00031708,-0.00030880,0.00005696,-0.00024921,0.00023143,0.00004
 344,0.00026975,-0.00011516,-0.00002326,0.00001678,-0.00000318,0.000000
 19,0.00018657,0.00011674,-0.00001561,-0.00000675,-0.00002535,-0.000011
 38,0.00003697,-0.00011902,-0.00002224,-0.00006103,-0.00000538,0.000005
 20,-0.00001534,-0.00003839,-0.00000001,-0.00002204,-0.00001337,0.00000
 146,-0.01096786,-0.05255803,-0.00002627,0.07928689,0.00171839,0.000130
 17,-0.05696904,0.03975815,0.00001225,0.03240070,-0.29983381,-0.0000293
 8,-0.00042044,0.00234622,-0.00000378,-0.06332727,-0.23359384,-0.000077
 24,0.00265191,0.00098019,-0.00000287,-0.02002803,0.63919524,-0.0000047
 9,0.00000449,-0.00004625,0.00000177,0.00000518,0.00002243,0.00000968,-
 0.00000430,-0.00106673,-0.00000113,-0.00000310,-0.00014518,-0.00000081
 ,-0.00000216,0.00024772,0.00000905,-0.00000387,-0.00004058,0.00000024,
 0.00000634,0.00009630,-0.00000447,0.00000531,0.00001652,0.00000206,-0.
 00000405,-0.00000646,0.00000129,-0.00000469,-0.00011821,-0.00000040,-0
 .00000049,-0.00001434,-0.00000024,0.00000029,0.00007412,-0.00000844,0.
 00000262,0.00011516,-0.00000003,-0.00000490,-0.00015935,0.,0.00000387,
 -0.00006612,-0.00000079,-0.00000239,0.00008408,0.00000026,0.00000024,-
 0.00000120,0.00000050,0.00000214,0.00003816,-0.00000006,-0.00000011,-0
 .00000221,0.00000277,-0.00000046,-0.00003324,-0.00000034,-0.00000038,-
 0.00000170,0.00000026,0.00000008,-0.00000030,0.00000048,-0.00000017,-0
 .00000206,-0.00000971,0.00000075,-0.00708752,0.00000324,-0.00000166,0.
 00920768,0.00000253,-0.00000016,0.00859511,0.00000185,-0.00000141,-0.0
 5786036,0.00000028,0.00000009,0.00691913,0.00000155,0.00000153,-0.0578
 3393,0.00000032,-0.00000017,0.00756340,-0.00001501,0.00000339,0.114618
 35,0.00000970,-0.00007491,-0.00000023,0.00007530,-0.00026792,0.0000006
 5,-0.00037680,-0.00168667,-0.00000152,-0.00025190,0.00033328,0.0000001
 4,-0.00008332,0.00000080,0.00000029,-0.00025864,0.00010985,-0.00000306
 ,-0.00000990,0.00018312,0.00000019,0.00003079,-0.00009442,0.00000150,-
 0.00012038,0.00027295,0.00000046,0.00002324,-0.00014038,0.00000034,-0.
 00000282,0.00000826,-0.00000035,-0.00002996,-0.00004358,-0.00000008,0.
 00026964,-0.00006731,0.00000268,-0.00008435,0.00009083,-0.00000143,-0.
 00009560,-0.00005823,-0.00000111,0.00007398,0.00001224,0.00000051,0.00
 000533,-0.00000483,0.00000002,0.00004316,-0.00002156,0.00000021,0.0000
 0456,-0.00000191,0.00000040,-0.00010139,0.00000123,0.00000060,-0.00000
 418,0.00001299,-0.00000011,-0.00001000,-0.00000927,0.00000003,-0.00001
 176,0.00000154,0.00000003,-0.00453087,0.00314535,0.00000063,-0.0154583
 7,-0.02649511,-0.00000278,-0.00049441,0.00090069,-0.00000019,-0.168646
 81,-0.13282515,0.00000353,0.00101103,0.00036965,-0.00000017,0.00037103
 ,0.00241158,0.00000216,0.00007030,-0.00009230,-0.00000003,0.01016190,0
 .00923314,0.00000006,0.17721166,0.00000655,-0.00008129,-0.00000006,0.0
 0004001,-0.00034319,0.00000254,-0.00010846,0.00021721,-0.00000510,0.00
 014320,0.00003679,0.00000095,-0.00000430,0.00018221,0.00000078,-0.0002
 5397,0.00009871,-0.00000636,-0.00001566,-0.00005165,0.00000204,0.00008
 966,-0.00009294,0.00000169,-0.00011559,0.00025511,-0.00000052,-0.00003
 376,-0.00003319,-0.00000047,0.00001035,0.00000726,-0.00000018,0.000044
 53,-0.00003298,0.00000046,0.00024795,-0.00005577,0.00000537,-0.0000842
 3,0.00009591,-0.00000258,-0.00007004,-0.00006426,-0.00000214,0.0000942
 9,0.00002073,0.00000087,0.00000292,-0.00000590,-0.00000007,0.00001811,
 0.00000319,0.00000101,0.00000627,-0.00000557,0.00000044,-0.00010675,-0
 .00002491,0.00000115,-0.00000195,0.00001483,-0.00000021,-0.00000933,-0
 .00000838,-0.00000002,-0.00001132,0.00000132,-0.00000009,0.00205170,0.
 00123084,0.00000200,0.00503781,0.00666790,-0.00000707,0.00073807,0.000
 12244,-0.00000067,-0.13332679,-0.22118454,0.00000382,-0.00035279,0.001
 14575,0.00000033,0.00418772,-0.00445905,0.00000358,-0.00007777,0.00006
 362,0.00000010,-0.02233599,-0.01733356,0.00000041,0.14483843,0.2336886
 6,0.00000056,-0.00000042,0.00000300,0.00000120,-0.00000095,0.00000750,
 0.00000901,0.00000295,0.00053333,-0.00000472,-0.00000294,-0.00027829,-
 0.00000302,-0.00000201,-0.00006854,0.00000305,0.00000282,0.00000798,0.
 00000251,-0.00000148,0.00002774,0.00000095,-0.00000107,-0.00000942,-0.
 00000026,0.00000028,-0.00001440,-0.00000066,0.00000114,-0.00000288,0.0
 0000024,-0.00000007,0.00000784,0.00000035,0.,0.00003213,-0.00000414,0.
 00000029,0.00001811,0.00000060,-0.00000035,0.00000320,0.00000227,0.000
 00021,-0.00000569,0.00000059,0.00000053,-0.00000475,-0.00000028,-0.000
 00026,0.00000244,-0.00000230,0.00000182,-0.00000300,0.00000017,-0.0000
 0008,0.00000260,-0.00000003,-0.00000174,-0.00000020,0.00000010,0.00000
 016,0.00000151,0.00000002,0.00000013,0.00000101,0.00000007,0.,0.000001
 03,-0.00000983,0.00000215,0.00735526,0.00000330,0.00000396,0.00250157,
 0.00000144,-0.00000432,-0.00077471,0.00000076,0.00000632,-0.03443026,0
 .00000002,-0.00000006,-0.00432330,-0.00000015,-0.00000167,0.00658575,-
 0.00000024,-0.00000028,-0.00105241,0.00000153,-0.00000266,0.00259737,-
 0.00000321,-0.00000251,0.02462796,-0.00063564,-0.00014616,-0.00000018,
 0.00018918,0.00017794,0.00000034,0.00046369,0.00161965,-0.00000071,-0.
 00007694,-0.00018870,0.00000002,-0.00012906,-0.00014141,0.00000032,-0.
 00003998,0.00013066,-0.00000174,-0.00020959,0.00057401,0.00000005,0.00
 011261,-0.00011190,0.00000095,-0.00012145,0.00002693,0.00000026,0.0002
 5491,-0.00048828,0.00000015,-0.00001362,0.00000838,-0.00000019,0.00002
 014,-0.00002289,-0.00000009,0.00009767,-0.00004143,0.00000153,-0.00002
 973,0.00003518,-0.00000090,-0.00003339,-0.00001347,-0.00000073,0.00002
 481,-0.00000129,0.00000036,0.00000727,0.00000110,0.00000001,0.00001366
 ,-0.00000912,0.00000006,0.00000180,-0.00000492,0.00000028,-0.00004166,
 0.00000380,0.00000028,-0.00000072,0.00000388,-0.00000004,-0.00000594,-
 0.00000462,0.00000004,-0.00000493,0.00000043,0.00000007,-0.00549949,-0
 .00025466,0.00000042,-0.00104723,-0.00046192,-0.00000161,-0.00632526,0
 .03110966,0.00000030,-0.00228250,-0.00327141,0.00000068,0.00012424,0.0
 0011408,-0.00000014,-0.08831646,0.08410377,0.00000300,0.00115970,-0.00
 015874,-0.00000022,0.01078445,-0.01994448,-0.00000025,0.00034841,-0.00
 114139,0.,0.09029696,0.00007130,0.00016821,-0.00000001,-0.00006542,0.0
 0025473,0.00000127,0.00016567,-0.00039127,-0.00000230,-0.00007498,0.00
 002477,0.00000041,0.00003768,-0.00013335,0.00000021,0.00029759,-0.0001
 4553,-0.00000264,0.00014254,-0.00023237,0.00000093,-0.00012333,0.00010
 750,0.00000080,0.00013308,-0.00023153,-0.00000022,-0.00002060,0.000295
 18,-0.00000022,-0.00000075,-0.00001056,-0.00000012,-0.00002896,0.00001
 346,0.00000020,-0.00033460,0.00006089,0.00000249,0.00011501,-0.0000930
 2,-0.00000152,0.00012056,0.00005395,-0.00000122,-0.00010363,-0.0000072
 9,0.00000071,-0.00000962,0.00000189,-0.00000003,-0.00005700,0.00001560
 ,0.00000055,-0.00000494,0.00001003,0.00000023,0.00011437,0.00000940,0.
 00000050,0.00000524,-0.00001242,-0.00000014,0.00001319,0.00001369,0.,0
 .00001387,-0.00000069,-0.00000006,0.00011620,0.00204344,0.00000091,-0.
 00027695,0.00071282,-0.00000356,0.00058856,-0.00261224,-0.00000038,-0.
 00472918,-0.00177841,0.00000081,0.00007587,-0.00006661,0.00000018,0.08
 441426,-0.30268050,-0.00000163,0.00001649,0.00078319,0.00000012,0.0114
 6133,-0.01788121,-0.00000062,0.00054645,-0.00113136,0.00000006,-0.0921
 9200,0.32188394,0.00000007,0.00000008,-0.00039311,-0.00000043,0.000000
 27,-0.00014782,-0.00000083,-0.00000011,0.00054900,0.00000037,0.0000001
 9,0.00003564,0.00000042,0.00000014,0.00001215,-0.00000050,-0.00000058,
 0.00000804,0.00000005,-0.00000002,0.00000508,-0.00000010,-0.00000013,-
 0.00001415,-0.00000002,-0.00000012,0.00005492,0.00000019,0.00000004,-0
 .00004275,0.00000004,0.00000011,0.00001358,0.00000002,-0.00000007,0.00
 002518,0.00000007,-0.00000052,0.00000832,0.00000049,0.00000082,-0.0000
 1247,0.00000043,-0.00000065,-0.00000804,-0.00000049,0.00000027,0.00000
 245,0.,0.00000002,0.00000331,-0.00000035,-0.00000025,-0.00000105,0.000
 00003,0.00000007,0.00000236,-0.00000032,0.00000026,-0.00000164,0.00000
 012,0.00000004,0.00000101,0.,0.00000006,0.00000152,0.00000001,0.000000
 03,0.00000122,0.00000113,-0.00000005,0.00789373,-0.00000041,0.00000082
 ,-0.00049783,0.00000024,-0.00000134,0.00310428,0.00000048,-0.00000061,
 0.00625943,-0.00000003,0.,-0.00110295,0.00000198,-0.00000372,-0.035854
 54,-0.00000010,0.00000011,-0.00466251,-0.00000013,0.00000066,0.0025346
 6,-0.00000004,0.00000007,0.00033063,-0.00000223,0.00000407,0.02527770,
 -0.00011052,-0.00003031,-0.00000055,0.00013381,-0.00022469,0.00000396,
 -0.00011893,0.00007426,-0.00000836,0.00007925,0.00007704,0.00000110,0.
 00002827,0.00009445,0.00000108,-0.00026554,0.00005084,-0.00001286,0.00
 018282,-0.00016782,0.00000245,-0.00002573,-0.00007298,0.00000501,-0.00
 013278,0.00020942,0.00000068,-0.00030116,-0.00004675,0.00000048,0.0000
 1138,0.00001476,-0.00000106,0.00005685,-0.00005111,0.00000024,0.000288
 60,-0.00007089,0.00001131,-0.00007788,0.00012962,-0.00000597,-0.000078
 25,-0.00009207,-0.00000469,0.00007243,0.00002562,0.00000227,0.00000981
 ,-0.00000068,-0.00000001,0.00002858,-0.00002260,0.00000156,0.00000744,
 -0.00000107,0.00000131,-0.00012163,-0.00000040,0.00000245,0.00000161,0
 .00001538,-0.00000050,-0.00001124,-0.00000923,0.00000003,-0.00001324,0
 .00000290,-0.00000009,0.00094050,-0.00038326,0.00000265,0.00148031,0.0
 0223582,-0.00001396,-0.00060920,-0.00439464,-0.00000092,-0.00738802,-0
 .00141703,0.00000317,-0.00054629,-0.00001981,0.00000033,-0.01561916,0.
 00756100,0.00000876,-0.00068590,0.00065817,0.00000023,-0.32605312,0.04
 778603,0.00000830,0.00086144,0.00049253,0.00000011,0.00091409,-0.00042
 726,-0.00000017,0.34706140,0.00008892,0.00006912,0.00000023,-0.0001114
 4,-0.00000509,-0.00000011,0.00010591,0.00002862,0.00000040,0.00006027,
 0.00006919,0.00000011,0.00005873,0.00006469,-0.00000006,-0.00000336,-0
 .00000481,0.00000166,0.00019489,-0.00027889,0.00000028,-0.00003737,0.0
 0003408,-0.00000121,0.00001421,0.00002800,-0.00000065,-0.00027551,0.00
 008117,-0.00000050,0.00000479,-0.00000086,0.00000036,-0.00013056,0.000
 06588,0.00000021,-0.00003178,0.00001934,-0.00000160,-0.00000085,-0.000
 01583,0.00000104,0.00001184,0.00000724,0.00000075,0.00001149,0.0000026
 3,-0.00000045,-0.00000586,-0.00000302,-0.00000004,-0.00001204,0.000017
 63,-0.00000002,0.00000078,-0.00000061,-0.00000033,0.00000743,-0.000017
 26,-0.00000036,-0.00000114,-0.00000023,0.00000008,0.00000095,0.0000009
 4,-0.00000003,0.00000142,-0.00000049,-0.00000004,-0.00040488,-0.001029
 11,0.00000019,0.00064996,-0.00527015,0.00000174,-0.00273269,-0.0038385
 6,0.00000008,0.03051328,0.00010196,-0.00000129,0.00156722,-0.00033503,
 0.00000005,-0.02420233,0.00907614,-0.00000067,-0.00099260,0.00048241,0
 .00000003,0.04754512,-0.06737560,-0.00000162,-0.00058882,0.00105603,0.
 00000005,0.00068930,0.00095565,0.00000006,-0.05199529,0.06601480,0.000
 00061,0.00000004,-0.00005294,0.00000169,-0.00000025,-0.00000776,0.0000
 1588,0.00000456,-0.00068063,-0.00000795,-0.00000534,-0.00001282,-0.000
 00537,-0.00000431,-0.00005405,0.00000632,0.00000387,0.00002614,0.00000
 460,-0.00000195,0.00003319,0.00000103,-0.00000140,0.00002681,-0.000000
 23,-0.00000038,0.00000878,-0.00000055,0.00000144,-0.00004343,0.0000004
 9,0.00000009,0.00000724,0.00000063,-0.00000014,0.00006540,-0.00000903,
 -0.00000002,-0.00000674,0.00000224,-0.00000012,-0.00000624,0.00000502,
 -0.00000016,-0.00000404,0.00000006,0.00000107,-0.00000038,-0.00000055,
 -0.00000046,0.00000240,-0.00000475,0.00000337,-0.00000034,0.00000038,0
 .,0.00000240,-0.00000030,-0.00000278,-0.00000178,0.00000039,0.00000035
 ,0.00000117,0.00000002,0.00000035,0.00000104,0.00000018,0.00000005,0.0
 0000097,-0.00001845,0.00000410,-0.00073628,0.00000474,0.00000730,0.006
 05318,0.00000281,-0.00000879,0.00583255,-0.00000294,0.00000614,0.00105
 045,0.00000036,-0.00000005,0.00068366,-0.00000005,-0.00000315,0.001185
 67,-0.00000029,-0.00000041,0.00044063,0.00001159,-0.00000538,-0.028244
 45,-0.00000012,0.00000046,-0.00368013,-0.00000012,0.00000022,-0.003385
 36,-0.00000835,0.00000169,0.02149571||0.00018359,-0.00015349,0.0000011
 1,-0.00021723,-0.00020301,-0.00000285,0.00001585,0.00026191,-0.0000000
 2,-0.00013117,-0.00022349,0.00000048,0.00013116,0.00022348,0.00000065,
 -0.00001588,-0.00026190,0.00000063,0.00021721,0.00020299,-0.00000154,-
 0.00018358,0.00015349,-0.00000012,0.00002845,0.00005912,0.00000093,-0.
 00002844,-0.00005912,0.00000054,0.00002413,-0.00000742,0.00000024,-0.0
 0002412,0.00000743,-0.00000003,0.00004968,0.00005633,0.00000003,-0.000
 04800,-0.00000488,0.,-0.00009290,-0.00001499,0.,0.00000508,-0.00000959
 ,0.,-0.00002070,0.00000538,-0.00000002,0.00005439,-0.00000897,0.,0.000
 00492,-0.00000005,-0.00000005,-0.00002442,0.00001316,0.,0.00000538,-0.
 00000312,0.,-0.00000180,-0.00000507,0.,0.00001495,-0.00001537,0.000000
 01,-0.00004967,-0.00005632,0.00000006,0.00009289,0.00001499,-0.0000000
 2,0.00004800,0.00000488,0.00000003,-0.00005438,0.00000896,0.00000001,-
 0.00000492,0.00000005,0.,-0.00000508,0.00000958,0.00000002,0.00002069,
 -0.00000538,-0.00000003,0.00002442,-0.00001315,-0.00000003,0.00000180,
 0.00000507,0.,-0.00000538,0.00000312,-0.00000002,-0.00001496,0.0000153
 7,0.00000001|||@


 THE PROGRESS OF RIVERS TO THE SEA IS NOT AS RAPID
 AS THAT OF MAN TO ERROR.
                                              -- VOLTAIRE
 Job cpu time:  0 days  3 hours  5 minutes 42.0 seconds.
 File lengths (MBytes):  RWF=   1384 Int=      0 D2E=      0 Chk=     20 Scr=      1
 Normal termination of Gaussian 09 at Thu Jul 13 18:06:26 2023.
