 Entering Link 1 = C:\G09W\l1.exe PID=      4376.
  
 Copyright (c) 1988,1990,1992,1993,1995,1998,2003,2009,2010,
            Gaussian, Inc.  All Rights Reserved.
  
 This is part of the Gaussian(R) 09 program.  It is based on
 the Gaussian(R) 03 system (copyright 2003, Gaussian, Inc.),
 the Gaussian(R) 98 system (copyright 1998, Gaussian, Inc.),
 the Gaussian(R) 94 system (copyright 1995, Gaussian, Inc.),
 the Gaussian 92(TM) system (copyright 1992, Gaussian, Inc.),
 the Gaussian 90(TM) system (copyright 1990, Gaussian, Inc.),
 the Gaussian 88(TM) system (copyright 1988, Gaussian, Inc.),
 the Gaussian 86(TM) system (copyright 1986, Carnegie Mellon
 University), and the Gaussian 82(TM) system (copyright 1983,
 Carnegie Mellon University). Gaussian is a federally registered
 trademark of Gaussian, Inc.
  
 This software contains proprietary and confidential information,
 including trade secrets, belonging to Gaussian, Inc.
  
 This software is provided under written license and may be
 used, copied, transmitted, or stored only in accord with that
 written license.
  
 The following legend is applicable only to US Government
 contracts under FAR:
  
                    RESTRICTED RIGHTS LEGEND
  
 Use, reproduction and disclosure by the US Government is
 subject to restrictions as set forth in subparagraphs (a)
 and (c) of the Commercial Computer Software - Restricted
 Rights clause in FAR 52.227-19.
  
 Gaussian, Inc.
 340 Quinnipiac St., Bldg. 40, Wallingford CT 06492
  
  
 ---------------------------------------------------------------
 Warning -- This program may not be used in any manner that
 competes with the business of Gaussian, Inc. or will provide
 assistance to any competitor of Gaussian, Inc.  The licensee
 of this program is prohibited from giving any competitor of
 Gaussian, Inc. access to this program.  By using this program,
 the user acknowledges that Gaussian, Inc. is engaged in the
 business of creating and licensing software in the field of
 computational chemistry and represents and warrants to the
 licensee that it is not a competitor of Gaussian, Inc. and that
 it will not use this program in any manner prohibited above.
 ---------------------------------------------------------------
  

 Cite this work as:
 Gaussian 09, Revision B.01,
 M. J. Frisch, G. W. Trucks, H. B. Schlegel, G. E. Scuseria, 
 M. A. Robb, J. R. Cheeseman, G. Scalmani, V. Barone, B. Mennucci, 
 G. A. Petersson, H. Nakatsuji, M. Caricato, X. Li, H. P. Hratchian, 
 A. F. Izmaylov, J. Bloino, G. Zheng, J. L. Sonnenberg, M. Hada, 
 M. Ehara, K. Toyota, R. Fukuda, J. Hasegawa, M. Ishida, T. Nakajima, 
 Y. Honda, O. Kitao, H. Nakai, T. Vreven, J. A. Montgomery, Jr., 
 J. E. Peralta, F. Ogliaro, M. Bearpark, J. J. Heyd, E. Brothers, 
 K. N. Kudin, V. N. Staroverov, T. Keith, R. Kobayashi, J. Normand, 
 K. Raghavachari, A. Rendell, J. C. Burant, S. S. Iyengar, J. Tomasi, 
 M. Cossi, N. Rega, J. M. Millam, M. Klene, J. E. Knox, J. B. Cross, 
 V. Bakken, C. Adamo, J. Jaramillo, R. Gomperts, R. E. Stratmann, 
 O. Yazyev, A. J. Austin, R. Cammi, C. Pomelli, J. W. Ochterski, 
 R. L. Martin, K. Morokuma, V. G. Zakrzewski, G. A. Voth, 
 P. Salvador, J. J. Dannenberg, S. Dapprich, A. D. Daniels, 
 O. Farkas, J. B. Foresman, J. V. Ortiz, J. Cioslowski, 
 and D. J. Fox, Gaussian, Inc., Wallingford CT, 2010.
 
 ******************************************
 Gaussian 09:  IA32W-G09RevB.01 12-Aug-2010
                11-Oct-2023 
 ******************************************
 %nprocshared=6
 Will use up to    6 processors via shared memory.
 %chk=G:\Meu Drive\POS-DOC-IME\SUBSTITUINTES-DOADORES\DPP-substituido\DPP-SUB-9\D
 PP-SUB-9-ANION.chk
 -----------------------------------------------------------
 # opt=tight freq b3lyp/6-31+g(d,p) nosymm geom=connectivity
 -----------------------------------------------------------
 1/7=10,14=-1,18=20,19=15,26=3,38=1,57=2/1,3;
 2/9=110,12=2,15=1,17=6,18=5,40=1/2;
 3/5=1,6=6,7=111,11=2,16=1,25=1,30=1,71=1,74=-5/1,2,3;
 4//1;
 5/5=2,38=5/2;
 6/7=2,8=2,9=2,10=2,28=1/1;
 7/30=1/1,2,3,16;
 1/7=10,14=-1,18=20,19=15/3(2);
 2/9=110,15=1/2;
 99//99;
 2/9=110,15=1/2;
 3/5=1,6=6,7=111,11=2,16=1,25=1,30=1,71=1,74=-5/1,2,3;
 4/5=5,16=3/1;
 5/5=2,38=5/2;
 7/30=1/1,2,3,16;
 1/7=10,14=-1,18=20,19=15/3(-5);
 2/9=110,15=1/2;
 6/7=2,8=2,9=2,10=2,19=2,28=1/1;
 99/9=1/99;
 -------
 Energy:
 -------
 Symbolic Z-matrix:
 Charge = -1 Multiplicity = 2
 N                    -1.35158   1.05356  -2.63549 
 C                     0.06751   1.05398  -2.67242 
 C                    -1.86225   0.7244   -1.3819 
 C                    -0.77074   0.49534  -0.55509 
 C                     0.427     0.68795  -1.31149 
 C                     1.51851   0.4589   -0.48468 
 C                    -0.41124   0.12931   0.80585 
 N                     1.00784   0.12975   0.76891 
 O                     0.72995   1.31709  -3.67236 
 O                    -1.07369  -0.13381   1.80578 
 H                     1.57932  -0.09002   1.57271 
 H                    -1.92305   1.27325  -3.43931 
 C                    -5.59982   0.79239  -1.47279 
 C                    -4.29875   0.93217  -2.0347 
 C                    -5.28255   1.80823  -3.97474 
 H                    -5.09064   1.77672  -5.04917 
 C                    -6.50514   0.98007  -3.61171 
 H                    -6.37189  -0.06043  -3.93687 
 C                    -3.27201   0.67348  -1.13592 
 C                    -5.56699   0.43918  -0.1494 
 H                    -6.41186   0.27155   0.50303 
 S                    -3.94711   0.26367   0.43678 
 C                     3.95501   0.25107   0.16811 
 C                     5.25609   0.39085  -0.39381 
 C                     6.16141   0.20312   1.7451 
 H                     6.0282    1.24363   2.07027 
 C                     4.93882  -0.62502   2.10813 
 H                     4.74692  -0.59349   3.18257 
 C                     5.22325   0.74409  -1.7172 
 H                     6.06811   0.91173  -2.36963 
 C                     2.92827   0.5098   -0.73066 
 S                     3.60336   0.91963  -2.30336 
 O                    -6.74136   1.01425  -2.1965 
 O                    -4.10034   1.27247  -3.3462 
 H                    -5.41421   2.84985  -3.65651 
 H                    -7.40197   1.39147  -4.07989 
 O                     3.75662  -0.08924   1.4796 
 O                     6.39762   0.16896   0.32989 
 H                     5.07046  -1.66664   1.7899 
 H                     7.05824  -0.2083    2.21327 
 

 GradGradGradGradGradGradGradGradGradGradGradGradGradGradGradGradGradGrad
 Berny optimization.
 Initialization pass.
                           ----------------------------
                           !    Initial Parameters    !
                           ! (Angstroms and Degrees)  !
 --------------------------                            --------------------------
 ! Name  Definition              Value          Derivative Info.                !
 --------------------------------------------------------------------------------
 ! R1    R(1,2)                  1.4196         estimate D2E/DX2                !
 ! R2    R(1,3)                  1.3931         estimate D2E/DX2                !
 ! R3    R(1,12)                 1.0104         estimate D2E/DX2                !
 ! R4    R(2,5)                  1.4544         estimate D2E/DX2                !
 ! R5    R(2,9)                  1.228          estimate D2E/DX2                !
 ! R6    R(3,4)                  1.3883         estimate D2E/DX2                !
 ! R7    R(3,19)                 1.432          estimate D2E/DX2                !
 ! R8    R(4,5)                  1.4296         estimate D2E/DX2                !
 ! R9    R(4,7)                  1.4544         estimate D2E/DX2                !
 ! R10   R(5,6)                  1.3883         estimate D2E/DX2                !
 ! R11   R(6,8)                  1.3931         estimate D2E/DX2                !
 ! R12   R(6,31)                 1.432          estimate D2E/DX2                !
 ! R13   R(7,8)                  1.4196         estimate D2E/DX2                !
 ! R14   R(7,10)                 1.228          estimate D2E/DX2                !
 ! R15   R(8,11)                 1.0104         estimate D2E/DX2                !
 ! R16   R(13,14)                1.4241         estimate D2E/DX2                !
 ! R17   R(13,20)                1.3701         estimate D2E/DX2                !
 ! R18   R(13,33)                1.3697         estimate D2E/DX2                !
 ! R19   R(14,19)                1.3889         estimate D2E/DX2                !
 ! R20   R(14,34)                1.3694         estimate D2E/DX2                !
 ! R21   R(15,16)                1.0919         estimate D2E/DX2                !
 ! R22   R(15,17)                1.5206         estimate D2E/DX2                !
 ! R23   R(15,34)                1.4421         estimate D2E/DX2                !
 ! R24   R(15,35)                1.0971         estimate D2E/DX2                !
 ! R25   R(17,18)                1.0982         estimate D2E/DX2                !
 ! R26   R(17,33)                1.4352         estimate D2E/DX2                !
 ! R27   R(17,36)                1.0921         estimate D2E/DX2                !
 ! R28   R(19,22)                1.7599         estimate D2E/DX2                !
 ! R29   R(20,21)                1.0805         estimate D2E/DX2                !
 ! R30   R(20,22)                1.7316         estimate D2E/DX2                !
 ! R31   R(23,24)                1.4241         estimate D2E/DX2                !
 ! R32   R(23,31)                1.3889         estimate D2E/DX2                !
 ! R33   R(23,37)                1.3694         estimate D2E/DX2                !
 ! R34   R(24,29)                1.3701         estimate D2E/DX2                !
 ! R35   R(24,38)                1.3697         estimate D2E/DX2                !
 ! R36   R(25,26)                1.0982         estimate D2E/DX2                !
 ! R37   R(25,27)                1.5206         estimate D2E/DX2                !
 ! R38   R(25,38)                1.4352         estimate D2E/DX2                !
 ! R39   R(25,40)                1.0921         estimate D2E/DX2                !
 ! R40   R(27,28)                1.0919         estimate D2E/DX2                !
 ! R41   R(27,37)                1.4421         estimate D2E/DX2                !
 ! R42   R(27,39)                1.0971         estimate D2E/DX2                !
 ! R43   R(29,30)                1.0805         estimate D2E/DX2                !
 ! R44   R(29,32)                1.7316         estimate D2E/DX2                !
 ! R45   R(31,32)                1.7598         estimate D2E/DX2                !
 ! A1    A(2,1,3)              112.951          estimate D2E/DX2                !
 ! A2    A(2,1,12)             122.9985         estimate D2E/DX2                !
 ! A3    A(3,1,12)             124.0502         estimate D2E/DX2                !
 ! A4    A(1,2,5)              102.8656         estimate D2E/DX2                !
 ! A5    A(1,2,9)              124.0923         estimate D2E/DX2                !
 ! A6    A(5,2,9)              133.0421         estimate D2E/DX2                !
 ! A7    A(1,3,4)              106.66           estimate D2E/DX2                !
 ! A8    A(1,3,19)             121.5929         estimate D2E/DX2                !
 ! A9    A(4,3,19)             131.747          estimate D2E/DX2                !
 ! A10   A(3,4,5)              108.745          estimate D2E/DX2                !
 ! A11   A(3,4,7)              142.4767         estimate D2E/DX2                !
 ! A12   A(5,4,7)              108.7783         estimate D2E/DX2                !
 ! A13   A(2,5,4)              108.7784         estimate D2E/DX2                !
 ! A14   A(2,5,6)              142.4765         estimate D2E/DX2                !
 ! A15   A(4,5,6)              108.7451         estimate D2E/DX2                !
 ! A16   A(5,6,8)              106.6599         estimate D2E/DX2                !
 ! A17   A(5,6,31)             131.7471         estimate D2E/DX2                !
 ! A18   A(8,6,31)             121.5929         estimate D2E/DX2                !
 ! A19   A(4,7,8)              102.8655         estimate D2E/DX2                !
 ! A20   A(4,7,10)             133.042          estimate D2E/DX2                !
 ! A21   A(8,7,10)             124.0924         estimate D2E/DX2                !
 ! A22   A(6,8,7)              112.951          estimate D2E/DX2                !
 ! A23   A(6,8,11)             124.0499         estimate D2E/DX2                !
 ! A24   A(7,8,11)             122.9988         estimate D2E/DX2                !
 ! A25   A(14,13,20)           112.6144         estimate D2E/DX2                !
 ! A26   A(14,13,33)           122.482          estimate D2E/DX2                !
 ! A27   A(20,13,33)           124.8961         estimate D2E/DX2                !
 ! A28   A(13,14,19)           113.6892         estimate D2E/DX2                !
 ! A29   A(13,14,34)           122.3207         estimate D2E/DX2                !
 ! A30   A(19,14,34)           123.9841         estimate D2E/DX2                !
 ! A31   A(16,15,17)           111.131          estimate D2E/DX2                !
 ! A32   A(16,15,34)           105.9069         estimate D2E/DX2                !
 ! A33   A(16,15,35)           109.5079         estimate D2E/DX2                !
 ! A34   A(17,15,34)           110.6529         estimate D2E/DX2                !
 ! A35   A(17,15,35)           110.5694         estimate D2E/DX2                !
 ! A36   A(34,15,35)           108.9465         estimate D2E/DX2                !
 ! A37   A(15,17,18)           110.35           estimate D2E/DX2                !
 ! A38   A(15,17,33)           110.7793         estimate D2E/DX2                !
 ! A39   A(15,17,36)           110.6543         estimate D2E/DX2                !
 ! A40   A(18,17,33)           109.5409         estimate D2E/DX2                !
 ! A41   A(18,17,36)           109.2445         estimate D2E/DX2                !
 ! A42   A(33,17,36)           106.1756         estimate D2E/DX2                !
 ! A43   A(3,19,14)            127.5908         estimate D2E/DX2                !
 ! A44   A(3,19,22)            122.6463         estimate D2E/DX2                !
 ! A45   A(14,19,22)           109.7613         estimate D2E/DX2                !
 ! A46   A(13,20,21)           127.1903         estimate D2E/DX2                !
 ! A47   A(13,20,22)           112.0568         estimate D2E/DX2                !
 ! A48   A(21,20,22)           120.7526         estimate D2E/DX2                !
 ! A49   A(19,22,20)            91.8762         estimate D2E/DX2                !
 ! A50   A(24,23,31)           113.6892         estimate D2E/DX2                !
 ! A51   A(24,23,37)           122.3206         estimate D2E/DX2                !
 ! A52   A(31,23,37)           123.9842         estimate D2E/DX2                !
 ! A53   A(23,24,29)           112.6144         estimate D2E/DX2                !
 ! A54   A(23,24,38)           122.482          estimate D2E/DX2                !
 ! A55   A(29,24,38)           124.896          estimate D2E/DX2                !
 ! A56   A(26,25,27)           110.3503         estimate D2E/DX2                !
 ! A57   A(26,25,38)           109.541          estimate D2E/DX2                !
 ! A58   A(26,25,40)           109.2443         estimate D2E/DX2                !
 ! A59   A(27,25,38)           110.7795         estimate D2E/DX2                !
 ! A60   A(27,25,40)           110.6539         estimate D2E/DX2                !
 ! A61   A(38,25,40)           106.1757         estimate D2E/DX2                !
 ! A62   A(25,27,28)           111.1306         estimate D2E/DX2                !
 ! A63   A(25,27,37)           110.6531         estimate D2E/DX2                !
 ! A64   A(25,27,39)           110.5696         estimate D2E/DX2                !
 ! A65   A(28,27,37)           105.9069         estimate D2E/DX2                !
 ! A66   A(28,27,39)           109.5077         estimate D2E/DX2                !
 ! A67   A(37,27,39)           108.9466         estimate D2E/DX2                !
 ! A68   A(24,29,30)           127.1904         estimate D2E/DX2                !
 ! A69   A(24,29,32)           112.0567         estimate D2E/DX2                !
 ! A70   A(30,29,32)           120.7525         estimate D2E/DX2                !
 ! A71   A(6,31,23)            127.591          estimate D2E/DX2                !
 ! A72   A(6,31,32)            122.6461         estimate D2E/DX2                !
 ! A73   A(23,31,32)           109.7613         estimate D2E/DX2                !
 ! A74   A(29,32,31)            91.8763         estimate D2E/DX2                !
 ! A75   A(13,33,17)           112.3328         estimate D2E/DX2                !
 ! A76   A(14,34,15)           113.0151         estimate D2E/DX2                !
 ! A77   A(23,37,27)           113.0153         estimate D2E/DX2                !
 ! A78   A(24,38,25)           112.3327         estimate D2E/DX2                !
 ! D1    D(3,1,2,5)              0.1032         estimate D2E/DX2                !
 ! D2    D(3,1,2,9)           -179.878          estimate D2E/DX2                !
 ! D3    D(12,1,2,5)           179.9269         estimate D2E/DX2                !
 ! D4    D(12,1,2,9)            -0.0543         estimate D2E/DX2                !
 ! D5    D(2,1,3,4)             -0.1048         estimate D2E/DX2                !
 ! D6    D(2,1,3,19)           179.7719         estimate D2E/DX2                !
 ! D7    D(12,1,3,4)          -179.9264         estimate D2E/DX2                !
 ! D8    D(12,1,3,19)           -0.0496         estimate D2E/DX2                !
 ! D9    D(1,2,5,4)             -0.0623         estimate D2E/DX2                !
 ! D10   D(1,2,5,6)            179.9429         estimate D2E/DX2                !
 ! D11   D(9,2,5,4)            179.9164         estimate D2E/DX2                !
 ! D12   D(9,2,5,6)             -0.0784         estimate D2E/DX2                !
 ! D13   D(1,3,4,5)              0.0591         estimate D2E/DX2                !
 ! D14   D(1,3,4,7)           -179.9351         estimate D2E/DX2                !
 ! D15   D(19,3,4,5)          -179.8003         estimate D2E/DX2                !
 ! D16   D(19,3,4,7)             0.2055         estimate D2E/DX2                !
 ! D17   D(1,3,19,14)           -0.4101         estimate D2E/DX2                !
 ! D18   D(1,3,19,22)         -179.8961         estimate D2E/DX2                !
 ! D19   D(4,3,19,14)          179.4317         estimate D2E/DX2                !
 ! D20   D(4,3,19,22)           -0.0544         estimate D2E/DX2                !
 ! D21   D(3,4,5,2)              0.0035         estimate D2E/DX2                !
 ! D22   D(3,4,5,6)           -179.9998         estimate D2E/DX2                !
 ! D23   D(7,4,5,2)            179.9997         estimate D2E/DX2                !
 ! D24   D(7,4,5,6)             -0.0036         estimate D2E/DX2                !
 ! D25   D(3,4,7,8)           -179.9428         estimate D2E/DX2                !
 ! D26   D(3,4,7,10)             0.0781         estimate D2E/DX2                !
 ! D27   D(5,4,7,8)              0.063          estimate D2E/DX2                !
 ! D28   D(5,4,7,10)          -179.9161         estimate D2E/DX2                !
 ! D29   D(2,5,6,8)            179.9352         estimate D2E/DX2                !
 ! D30   D(2,5,6,31)            -0.2055         estimate D2E/DX2                !
 ! D31   D(4,5,6,8)             -0.0597         estimate D2E/DX2                !
 ! D32   D(4,5,6,31)           179.7997         estimate D2E/DX2                !
 ! D33   D(5,6,8,7)              0.106          estimate D2E/DX2                !
 ! D34   D(5,6,8,11)           179.9216         estimate D2E/DX2                !
 ! D35   D(31,6,8,7)          -179.7708         estimate D2E/DX2                !
 ! D36   D(31,6,8,11)            0.0448         estimate D2E/DX2                !
 ! D37   D(5,6,31,23)         -179.43           estimate D2E/DX2                !
 ! D38   D(5,6,31,32)            0.0555         estimate D2E/DX2                !
 ! D39   D(8,6,31,23)            0.4118         estimate D2E/DX2                !
 ! D40   D(8,6,31,32)          179.8973         estimate D2E/DX2                !
 ! D41   D(4,7,8,6)             -0.1043         estimate D2E/DX2                !
 ! D42   D(4,7,8,11)          -179.9222         estimate D2E/DX2                !
 ! D43   D(10,7,8,6)           179.8772         estimate D2E/DX2                !
 ! D44   D(10,7,8,11)            0.0594         estimate D2E/DX2                !
 ! D45   D(20,13,14,19)          0.4798         estimate D2E/DX2                !
 ! D46   D(20,13,14,34)        179.6195         estimate D2E/DX2                !
 ! D47   D(33,13,14,19)        179.5221         estimate D2E/DX2                !
 ! D48   D(33,13,14,34)         -1.3382         estimate D2E/DX2                !
 ! D49   D(14,13,20,21)       -179.9887         estimate D2E/DX2                !
 ! D50   D(14,13,20,22)         -0.2283         estimate D2E/DX2                !
 ! D51   D(33,13,20,21)          0.9963         estimate D2E/DX2                !
 ! D52   D(33,13,20,22)       -179.2433         estimate D2E/DX2                !
 ! D53   D(14,13,33,17)         18.2168         estimate D2E/DX2                !
 ! D54   D(20,13,33,17)       -162.8611         estimate D2E/DX2                !
 ! D55   D(13,14,19,3)         179.962          estimate D2E/DX2                !
 ! D56   D(13,14,19,22)         -0.4979         estimate D2E/DX2                !
 ! D57   D(34,14,19,3)           0.8387         estimate D2E/DX2                !
 ! D58   D(34,14,19,22)       -179.6211         estimate D2E/DX2                !
 ! D59   D(13,14,34,15)         15.4924         estimate D2E/DX2                !
 ! D60   D(19,14,34,15)       -165.4577         estimate D2E/DX2                !
 ! D61   D(16,15,17,18)         57.85           estimate D2E/DX2                !
 ! D62   D(16,15,17,33)        179.3371         estimate D2E/DX2                !
 ! D63   D(16,15,17,36)        -63.181          estimate D2E/DX2                !
 ! D64   D(34,15,17,18)        -59.5172         estimate D2E/DX2                !
 ! D65   D(34,15,17,33)         61.9699         estimate D2E/DX2                !
 ! D66   D(34,15,17,36)        179.4518         estimate D2E/DX2                !
 ! D67   D(35,15,17,18)        179.6816         estimate D2E/DX2                !
 ! D68   D(35,15,17,33)        -58.8313         estimate D2E/DX2                !
 ! D69   D(35,15,17,36)         58.6506         estimate D2E/DX2                !
 ! D70   D(16,15,34,14)       -164.6435         estimate D2E/DX2                !
 ! D71   D(17,15,34,14)        -44.1115         estimate D2E/DX2                !
 ! D72   D(35,15,34,14)         77.6492         estimate D2E/DX2                !
 ! D73   D(15,17,33,13)        -46.936          estimate D2E/DX2                !
 ! D74   D(18,17,33,13)         75.026          estimate D2E/DX2                !
 ! D75   D(36,17,33,13)       -167.1271         estimate D2E/DX2                !
 ! D76   D(3,19,22,20)         179.8768         estimate D2E/DX2                !
 ! D77   D(14,19,22,20)          0.3095         estimate D2E/DX2                !
 ! D78   D(13,20,22,19)         -0.046          estimate D2E/DX2                !
 ! D79   D(21,20,22,19)        179.7319         estimate D2E/DX2                !
 ! D80   D(31,23,24,29)         -0.4796         estimate D2E/DX2                !
 ! D81   D(31,23,24,38)       -179.5219         estimate D2E/DX2                !
 ! D82   D(37,23,24,29)       -179.6191         estimate D2E/DX2                !
 ! D83   D(37,23,24,38)          1.3385         estimate D2E/DX2                !
 ! D84   D(24,23,31,6)        -179.9621         estimate D2E/DX2                !
 ! D85   D(24,23,31,32)          0.4981         estimate D2E/DX2                !
 ! D86   D(37,23,31,6)          -0.839          estimate D2E/DX2                !
 ! D87   D(37,23,31,32)        179.6212         estimate D2E/DX2                !
 ! D88   D(24,23,37,27)        -15.4917         estimate D2E/DX2                !
 ! D89   D(31,23,37,27)        165.4585         estimate D2E/DX2                !
 ! D90   D(23,24,29,30)        179.9889         estimate D2E/DX2                !
 ! D91   D(23,24,29,32)          0.2276         estimate D2E/DX2                !
 ! D92   D(38,24,29,30)         -0.996          estimate D2E/DX2                !
 ! D93   D(38,24,29,32)        179.2427         estimate D2E/DX2                !
 ! D94   D(23,24,38,25)        -18.2176         estimate D2E/DX2                !
 ! D95   D(29,24,38,25)        162.8602         estimate D2E/DX2                !
 ! D96   D(26,25,27,28)        -57.8491         estimate D2E/DX2                !
 ! D97   D(26,25,27,37)         59.5181         estimate D2E/DX2                !
 ! D98   D(26,25,27,39)       -179.6803         estimate D2E/DX2                !
 ! D99   D(38,25,27,28)       -179.3365         estimate D2E/DX2                !
 ! D100  D(38,25,27,37)        -61.9693         estimate D2E/DX2                !
 ! D101  D(38,25,27,39)         58.8323         estimate D2E/DX2                !
 ! D102  D(40,25,27,28)         63.1816         estimate D2E/DX2                !
 ! D103  D(40,25,27,37)       -179.4512         estimate D2E/DX2                !
 ! D104  D(40,25,27,39)        -58.6496         estimate D2E/DX2                !
 ! D105  D(26,25,38,24)        -75.0262         estimate D2E/DX2                !
 ! D106  D(27,25,38,24)         46.9364         estimate D2E/DX2                !
 ! D107  D(40,25,38,24)        167.1271         estimate D2E/DX2                !
 ! D108  D(25,27,37,23)         44.1105         estimate D2E/DX2                !
 ! D109  D(28,27,37,23)        164.6421         estimate D2E/DX2                !
 ! D110  D(39,27,37,23)        -77.6507         estimate D2E/DX2                !
 ! D111  D(24,29,32,31)          0.0467         estimate D2E/DX2                !
 ! D112  D(30,29,32,31)       -179.7321         estimate D2E/DX2                !
 ! D113  D(6,31,32,29)        -179.8769         estimate D2E/DX2                !
 ! D114  D(23,31,32,29)         -0.31           estimate D2E/DX2                !
 --------------------------------------------------------------------------------
 Trust Radius=3.00D-01 FncErr=1.00D-07 GrdErr=1.00D-06
 Number of steps in this run=    240 maximum allowed number of steps=    240.
 GradGradGradGradGradGradGradGradGradGradGradGradGradGradGradGradGradGrad

                          Input orientation:                          
 ---------------------------------------------------------------------
 Center     Atomic      Atomic             Coordinates (Angstroms)
 Number     Number       Type             X           Y           Z
 ---------------------------------------------------------------------
      1          7           0       -1.351578    1.053555   -2.635486
      2          6           0        0.067506    1.053979   -2.672422
      3          6           0       -1.862249    0.724395   -1.381900
      4          6           0       -0.770736    0.495342   -0.555088
      5          6           0        0.426997    0.687952   -1.311485
      6          6           0        1.518511    0.458896   -0.484676
      7          6           0       -0.411244    0.129309    0.805848
      8          7           0        1.007840    0.129747    0.768914
      9          8           0        0.729953    1.317093   -3.672361
     10          8           0       -1.073691   -0.133811    1.805784
     11          1           0        1.579319   -0.090018    1.572714
     12          1           0       -1.923053    1.273254   -3.439307
     13          6           0       -5.599824    0.792393   -1.472786
     14          6           0       -4.298749    0.932174   -2.034701
     15          6           0       -5.282547    1.808234   -3.974740
     16          1           0       -5.090641    1.776715   -5.049171
     17          6           0       -6.505136    0.980073   -3.611712
     18          1           0       -6.371893   -0.060429   -3.936869
     19          6           0       -3.272012    0.673480   -1.135919
     20          6           0       -5.566987    0.439181   -0.149396
     21          1           0       -6.411860    0.271547    0.503034
     22         16           0       -3.947107    0.263669    0.436778
     23          6           0        3.955014    0.251073    0.168108
     24          6           0        5.256087    0.390848   -0.393814
     25          6           0        6.161415    0.203124    1.745098
     26          1           0        6.028200    1.243625    2.070269
     27          6           0        4.938817   -0.625020    2.108132
     28          1           0        4.746923   -0.593494    3.182567
     29          6           0        5.223246    0.744093   -1.717195
     30          1           0        6.068115    0.911727   -2.369629
     31          6           0        2.928274    0.509799   -0.730661
     32         16           0        3.603362    0.919626   -2.303356
     33          8           0       -6.741358    1.014251   -2.196504
     34          8           0       -4.100344    1.272467   -3.346195
     35          1           0       -5.414208    2.849850   -3.656506
     36          1           0       -7.401968    1.391472   -4.079889
     37          8           0        3.756616   -0.089242    1.479598
     38          8           0        6.397624    0.168957    0.329890
     39          1           0        5.070462   -1.666640    1.789904
     40          1           0        7.058242   -0.208300    2.213265
 ---------------------------------------------------------------------
                    Distance matrix (angstroms):
                    1          2          3          4          5
     1  N    0.000000
     2  C    1.419565   0.000000
     3  C    1.393057   2.344787   0.000000
     4  C    2.230927   2.344745   1.388339   0.000000
     5  C    2.247215   1.454427   2.290619   1.429615   0.000000
     6  C    3.635521   2.691797   3.507854   2.290620   1.388338
     7  C    3.685273   3.630782   2.691799   1.454428   2.344745
     8  N    4.243844   3.685272   3.635522   2.247215   2.230926
     9  O    2.340370   1.227983   3.509560   3.555943   2.461978
    10  O    4.605642   4.771531   3.394064   2.461977   3.555942
    11  H    5.254223   4.649246   4.608406   3.223809   3.201826
    12  H    1.010435   2.144416   2.130227   3.201828   3.223808
    13  C    4.412218   5.798809   3.739298   4.924480   6.029884
    14  C    3.010231   4.414262   2.530979   3.850578   4.786999
    15  C    4.220860   5.557697   4.426733   5.811553   6.398973
    16  H    4.508817   5.725187   4.997876   6.363983   6.752779
    17  C    5.245720   6.639831   5.156921   6.516230   7.309641
    18  H    5.304538   6.656320   5.242204   6.566451   7.326501
    19  C    2.466014   3.695673   1.431967   2.574001   3.703201
    20  C    4.932319   6.204123   3.914779   4.813706   6.110661
    21  H    6.005689   7.257955   4.945403   5.743865   7.087724
    22  S    4.098719   5.138952   2.804727   3.335686   4.729612
    23  C    6.055083   4.881187   6.038800   4.787002   3.850580
    24  C    7.008959   5.705539   7.194322   6.029886   4.924480
    25  C    8.738296   7.574574   8.627226   7.309649   6.516234
    26  H    8.754506   7.619643   8.628224   7.326524   6.566468
    27  C    8.055346   7.028684   7.762457   6.398980   5.811557
    28  H    8.588028   7.674113   8.139554   6.752791   6.363990
    29  C    6.645851   5.252632   7.093451   6.110662   4.813705
    30  H    7.425809   6.009927   7.993834   7.087723   5.743862
    31  C    4.716054   3.500080   4.839346   3.703203   2.574001
    32  S    4.967865   3.557603   5.546179   4.729608   3.335682
    33  O    5.407770   6.825592   4.955129   6.213843   7.230148
    34  O    2.847586   4.227609   3.027855   4.413671   4.997851
    35  H    4.557864   5.851732   4.723114   6.060061   6.655269
    36  H    6.229583   7.608410   6.197792   7.563102   8.333768
    37  O    6.658344   5.670605   6.357816   4.997860   4.413676
    38  O    8.344226   7.061695   8.453652   7.230152   6.213844
    39  H    8.259911   7.234894   7.989986   6.655280   6.060073
    40  H    9.789164   8.621698   9.662830   8.333774   7.563104
                    6          7          8          9         10
     6  C    0.000000
     7  C    2.344789   0.000000
     8  N    1.393058   1.419565   0.000000
     9  O    3.394063   4.771532   4.605642   0.000000
    10  O    3.509561   1.227982   2.340370   5.947128   0.000000
    11  H    2.130225   2.144418   1.010435   5.496562   2.663588
    12  H    4.608404   4.649249   5.254224   2.663583   5.496565
    13  C    7.194322   5.705543   7.008962   6.721571   5.665047
    14  C    6.038798   4.881189   6.055083   5.302635   5.127051
    15  C    7.762451   7.028684   8.055342   6.040100   7.409485
    16  H    8.139542   7.674109   8.588020   5.998848   8.171683
    17  C    8.627218   7.574573   8.738292   7.243188   7.751812
    18  H    8.628199   7.619626   8.754486   7.239043   7.813731
    19  C    4.839346   3.500082   4.716054   4.781579   3.760047
    20  C    7.093454   5.252637   6.645855   7.268663   4.933635
    21  H    7.993839   6.009935   7.425816   8.338620   5.509766
    22  S    5.546185   3.557610   4.967872   6.314239   3.207598
    23  C    2.530981   4.414266   3.010236   5.127048   5.302640
    24  C    3.739300   5.798813   4.412223   5.665041   6.721576
    25  C    5.156924   6.639841   5.245727   7.751811   7.243201
    26  H    5.242217   6.656343   5.304551   7.813745   7.239070
    27  C    4.426739   5.557707   4.220872   7.409483   6.040112
    28  H    4.997884   5.725201   4.508829   8.171685   5.998865
    29  C    3.914780   6.204126   4.932323   4.933628   7.268666
    30  H    4.945402   7.257956   6.005691   5.509756   8.338622
    31  C    1.431968   3.695675   2.466015   3.760045   4.781580
    32  S    2.804723   5.138950   4.098718   3.207590   6.314237
    33  O    8.453651   7.061698   8.344227   7.621703   7.032695
    34  O    6.357808   5.670602   6.658339   4.841502   6.138496
    35  H    7.989979   7.234887   8.259903   6.332481   7.588078
    36  H    9.662826   8.621700   9.789163   8.142466   8.775803
    37  O    3.027861   4.227619   2.847595   6.138497   4.841513
    38  O    4.955131   6.825598   5.407777   7.032690   7.621711
    39  H    4.723132   5.851743   4.557886   7.588084   6.332490
    40  H    6.197794   7.608418   6.229590   8.775800   8.142477
                   11         12         13         14         15
    11  H    0.000000
    12  H    6.264621   0.000000
    13  C    7.848173   4.197270   0.000000
    14  C    6.972087   2.780860   1.424108   0.000000
    15  C    9.025675   3.443703   2.718892   2.345014   0.000000
    16  H    9.582402   3.588697   3.744154   3.229144   1.091890
    17  C    9.663425   4.594689   2.330197   2.712453   1.520646
    18  H    9.673580   4.671023   2.719393   2.983526   2.163333
    19  C    5.608479   2.735876   2.355064   1.388856   3.659074
    20  C    7.369898   4.979704   1.370109   2.325047   4.072894
    21  H    8.070557   6.057628   2.198760   3.367754   4.866951
    22  S    5.653037   4.487771   2.580205   2.584330   4.861129
    23  C    2.780861   6.972085   9.709814   8.569765  10.243070
    24  C    4.197271   7.848167  10.916786   9.709811  11.220286
    25  C    4.594698   9.663429  12.207734  11.146005  12.894076
    26  H    4.671050   9.673610  12.164201  11.117268  12.837208
    27  C    3.443708   9.025674  11.220294  10.243073  12.140772
    28  H    3.588709   9.582408  11.430143  10.553281  12.553311
    29  C    4.979703   7.369889  10.825937   9.529143  10.798175
    30  H    6.057627   8.070544  11.702964  10.372293  11.498593
    31  C    2.735872   5.608476   8.564991   7.355867   8.923428
    32  S    4.487767   5.653026   9.241465   7.906686   9.085292
    33  O    9.201091   4.982741   1.369704   2.449338   2.433241
    34  O    7.636138   2.179281   2.447156   1.369372   1.442123
    35  H    9.213956   3.836795   3.006030   2.748087   1.097074
    36  H   10.714954   5.517502   3.225462   3.744825   2.162566
    37  O    2.179287   7.636142   9.850727   8.847739  10.726448
    38  O    4.982744   9.201086  12.148130  10.981174  12.555615
    39  H    3.836794   9.213950  11.425716  10.448136  12.348711
    40  H    5.517508  10.714954  13.221762  12.178963  13.951806
                   16         17         18         19         20
    16  H    0.000000
    17  C    2.168346   0.000000
    18  H    2.500784   1.098237   0.000000
    19  C    4.453996   4.083704   4.241840   0.000000
    20  C    5.101343   3.627716   3.904156   2.508991   0.000000
    21  H    5.902383   4.176343   4.452476   3.564599   1.080545
    22  S    5.804534   4.842212   5.011329   1.759851   1.731593
    23  C   10.553268  11.145996  11.117233   7.355870   9.529150
    24  C   11.430125  12.207720  12.164161   8.564991  10.825941
    25  C   13.238091  13.774635  13.763648   9.874768  11.882771
    26  H   13.213600  13.763680  13.840107   9.853865  11.833106
    27  C   12.553300  12.894068  12.837171   8.923434  10.798188
    28  H   13.044427  13.238095  13.213576   9.195535  10.887843
    29  C   10.887821  11.882753  11.833066   8.515414  10.907800
    30  H   11.508518  12.634638  12.575974   9.424265  11.854465
    31  C    9.195521   9.874758   9.853834   6.215671   8.515416
    32  S    9.157499  10.192997  10.155520   6.978128   9.432162
    33  O    3.382887   1.435194   2.078536   3.643807   2.429095
    34  O    2.033490   2.437010   2.699156   2.435208   3.614544
    35  H    1.787688   2.165224   3.076603   3.959665   4.258461
    36  H    2.535774   1.092129   1.785924   5.122403   4.441035
    37  O   11.152604  11.505148  11.485889   7.538188   9.479579
    38  O   12.786689  13.515745  13.465453   9.793110  11.977256
    39  H   12.723115  13.045191  12.895865   9.145134  11.015929
    40  H   14.292607  14.809045  14.772087  10.895353  12.860708
                   21         22         23         24         25
    21  H    0.000000
    22  S    2.465656   0.000000
    23  C   10.372303   7.906697   0.000000
    24  C   11.702972   9.241474   1.424108   0.000000
    25  C   12.634661  10.193016   2.712453   2.330194   0.000000
    26  H   12.576019  10.155558   2.983534   2.719392   1.098237
    27  C   11.498610   9.085309   2.345016   2.718893   1.520645
    28  H   11.508546   9.157524   3.229145   3.744153   2.168342
    29  C   11.854468   9.432167   2.325048   1.370109   3.627710
    30  H   12.822316  10.421160   3.367754   2.198761   4.176338
    31  C    9.424270   6.978134   1.388856   2.355064   4.083703
    32  S   10.421157   8.059044   2.584329   2.580205   4.842209
    33  O    2.819164   3.912210  10.981175  12.148128  13.515758
    34  O    4.600164   3.918168   8.847732   9.850716  11.505149
    35  H    4.994470   5.059218  10.448140  11.425719  13.045211
    36  H    4.820553   5.797265  12.178958  13.221753  14.809051
    37  O   10.221631   7.781990   1.369373   2.447156   2.437012
    38  O   12.811065  10.345717   2.449339   1.369704   1.435192
    39  H   11.715644   9.320600   2.748103   3.006050   2.165226
    40  H   13.586714  11.157794   3.744825   3.225461   1.092130
                   26         27         28         29         30
    26  H    0.000000
    27  C    2.163336   0.000000
    28  H    2.500777   1.091892   0.000000
    29  C    3.904147   4.072898   5.101342   0.000000
    30  H    4.452465   4.866955   5.902382   1.080544   0.000000
    31  C    4.241845   3.659077   4.453997   2.508992   3.564599
    32  S    5.011328   4.861131   5.804534   1.731595   2.465656
    33  O   13.465496  12.555620  12.786706  11.977248  12.811053
    34  O   11.485918  10.726443  11.152609   9.479565  10.221613
    35  H   12.895915  12.348721  12.723133  11.015923  11.715635
    36  H   14.772126  13.951803  14.292617  12.860694  13.586695
    37  O    2.699170   1.442121   2.033490   3.614545   4.600165
    38  O    2.078534   2.433241   3.382885   2.429095   2.819164
    39  H    3.076607   1.097074   1.787688   4.258488   4.994497
    40  H    1.785923   2.162561   2.535767   4.441034   4.820553
                   31         32         33         34         35
    31  C    0.000000
    32  S    1.759850   0.000000
    33  O    9.793107  10.345705   0.000000
    34  O    7.538180   7.781973   2.891958   0.000000
    35  H    9.145131   9.320587   2.694876   2.076215   0.000000
    36  H   10.895346  11.157777   2.031216   3.384256   2.501461
    37  O    2.435210   3.918168  11.177606   9.320641  10.914295
    38  O    3.643807   3.912210  13.406343  11.177597  12.751389
    39  H    3.959685   5.059242  12.751381  10.914282  12.648730
    40  H    5.122402   5.797265  14.538557  12.554454  14.119791
                   36         37         38         39         40
    36  H    0.000000
    37  O   12.554458   0.000000
    38  O   14.538550   2.891958   0.000000
    39  H   14.119774   2.076214   2.694887   0.000000
    40  H   15.851206   3.384254   2.031216   2.501451   0.000000
 Symmetry turned off by external request.
 Stoichiometry    C18H12N2O6S2(1-,2)
 Framework group  C1[X(C18H12N2O6S2)]
 Deg. of freedom   114
 Full point group                 C1      NOp   1
 Rotational constants (GHZ):      0.4441311      0.0698267      0.0605512
 Standard basis: 6-31+G(d,p) (6D, 7F)
 Integral buffers will be    262144 words long.
 Raffenetti 2 integral format.
 Two-electron integral symmetry is turned off.
   600 basis functions,  1028 primitive gaussians,   600 cartesian basis functions
   108 alpha electrons      107 beta electrons
       nuclear repulsion energy      2837.4392607812 Hartrees.
 NAtoms=   40 NActive=   40 NUniq=   40 SFac= 1.00D+00 NAtFMM=   50 NAOKFM=F Big=F
 One-electron integrals computed using PRISM.
 NBasis=   600 RedAO= T  NBF=   600
 NBsUse=   594 1.00D-06 NBFU=   594
 Harris functional with IExCor=  402 diagonalized for initial guess.
 ExpMin= 4.05D-02 ExpMax= 2.19D+04 ExpMxC= 3.30D+03 IAcc=2 IRadAn=         0 AccDes= 0.00D+00
 HarFok:  IExCor=  402 AccDes= 0.00D+00 IRadAn=         0 IDoV= 1
 ScaDFX=  1.000000  1.000000  1.000000  1.000000
 FoFCou: FMM=F IPFlag=           0 FMFlag=      100000 FMFlg1=           0
         NFxFlg=           0 DoJE=T BraDBF=F KetDBF=T FulRan=T
         Omega=  0.000000  0.000000  1.000000  0.000000  0.000000 ICntrl=     500 IOpCl=  0
         NMat0=    1 NMatS0=    1 NMatT0=    0 NMatD0=    1 NMtDS0=    0 NMtDT0=    0
         I1Cent=           4 NGrid=           0.
 Symmetry not used in FoFCou.
 Initial guess <Sx>= 0.0000 <Sy>= 0.0000 <Sz>= 0.5000 <S**2>= 0.7500 S= 0.5000
 Requested convergence on RMS density matrix=1.00D-08 within 128 cycles.
 Requested convergence on MAX density matrix=1.00D-06.
 Requested convergence on             energy=1.00D-06.
 No special actions if energy rises.
 Restarting incremental Fock formation.
 SCF Done:  E(UB3LYP) =  -2050.42576417     A.U. after   23 cycles
             Convg  =    0.8441D-08             -V/T =  2.0067
 <Sx>= 0.0000 <Sy>= 0.0000 <Sz>= 0.5000 <S**2>= 0.7732 S= 0.5115
 <L.S>= 0.000000000000E+00
 Annihilation of the first spin contaminant:
 S**2 before annihilation     0.7732,   after     0.7504

 **********************************************************************

            Population analysis using the SCF density.

 **********************************************************************

 Alpha  occ. eigenvalues --  -88.79897 -88.79897 -19.10441 -19.10441 -19.10335
 Alpha  occ. eigenvalues --  -19.10335 -18.98582 -18.98582 -14.24143 -14.24143
 Alpha  occ. eigenvalues --  -10.18065 -10.18064 -10.17976 -10.17976 -10.15318
 Alpha  occ. eigenvalues --  -10.15317 -10.14976 -10.14976 -10.14236 -10.14236
 Alpha  occ. eigenvalues --  -10.11401 -10.11401 -10.11167 -10.11167 -10.10056
 Alpha  occ. eigenvalues --  -10.10055 -10.04866 -10.04822  -7.85701  -7.85700
 Alpha  occ. eigenvalues --   -5.82160  -5.82159  -5.81794  -5.81794  -5.81366
 Alpha  occ. eigenvalues --   -5.81366  -1.00384  -1.00384  -0.97027  -0.97027
 Alpha  occ. eigenvalues --   -0.90411  -0.89931  -0.83266  -0.81993  -0.77455
 Alpha  occ. eigenvalues --   -0.77373  -0.69711  -0.69684  -0.66495  -0.65625
 Alpha  occ. eigenvalues --   -0.65219  -0.61361  -0.61058  -0.59994  -0.58549
 Alpha  occ. eigenvalues --   -0.55267  -0.53758  -0.53562  -0.49725  -0.47922
 Alpha  occ. eigenvalues --   -0.46324  -0.46309  -0.45410  -0.45165  -0.43268
 Alpha  occ. eigenvalues --   -0.42133  -0.41090  -0.40787  -0.39938  -0.39738
 Alpha  occ. eigenvalues --   -0.36580  -0.36576  -0.36193  -0.35469  -0.34544
 Alpha  occ. eigenvalues --   -0.34174  -0.34117  -0.32888  -0.32576  -0.32018
 Alpha  occ. eigenvalues --   -0.31470  -0.30984  -0.30521  -0.30001  -0.29918
 Alpha  occ. eigenvalues --   -0.28621  -0.28315  -0.28294  -0.26067  -0.25766
 Alpha  occ. eigenvalues --   -0.24990  -0.24200  -0.24092  -0.23963  -0.23254
 Alpha  occ. eigenvalues --   -0.22255  -0.22197  -0.20645  -0.20281  -0.13601
 Alpha  occ. eigenvalues --   -0.12862  -0.12847  -0.12331  -0.12112  -0.12011
 Alpha  occ. eigenvalues --   -0.11930  -0.06106  -0.00163
 Alpha virt. eigenvalues --    0.06890   0.06913   0.07501   0.09328   0.09345
 Alpha virt. eigenvalues --    0.09744   0.09761   0.10346   0.10390   0.10591
 Alpha virt. eigenvalues --    0.10593   0.11420   0.12434   0.12640   0.13322
 Alpha virt. eigenvalues --    0.13802   0.13957   0.14084   0.14103   0.14365
 Alpha virt. eigenvalues --    0.14429   0.14775   0.14797   0.15064   0.15998
 Alpha virt. eigenvalues --    0.16187   0.16437   0.17080   0.17121   0.17550
 Alpha virt. eigenvalues --    0.17737   0.18483   0.18756   0.19243   0.19277
 Alpha virt. eigenvalues --    0.19505   0.19893   0.20414   0.20603   0.20813
 Alpha virt. eigenvalues --    0.20905   0.21479   0.21503   0.22609   0.22615
 Alpha virt. eigenvalues --    0.23003   0.23457   0.23875   0.23981   0.24198
 Alpha virt. eigenvalues --    0.24254   0.24653   0.25150   0.25307   0.25638
 Alpha virt. eigenvalues --    0.25922   0.26133   0.26448   0.26519   0.26758
 Alpha virt. eigenvalues --    0.26931   0.27450   0.27793   0.27874   0.28284
 Alpha virt. eigenvalues --    0.28694   0.28980   0.29056   0.29304   0.29664
 Alpha virt. eigenvalues --    0.29788   0.30042   0.30172   0.30520   0.30815
 Alpha virt. eigenvalues --    0.31006   0.31257   0.31530   0.31622   0.32103
 Alpha virt. eigenvalues --    0.32444   0.32720   0.32870   0.32961   0.33454
 Alpha virt. eigenvalues --    0.33795   0.33906   0.34605   0.34739   0.35434
 Alpha virt. eigenvalues --    0.35610   0.36114   0.36634   0.36642   0.36892
 Alpha virt. eigenvalues --    0.36982   0.37166   0.37750   0.37811   0.38114
 Alpha virt. eigenvalues --    0.38484   0.38606   0.38820   0.39333   0.39518
 Alpha virt. eigenvalues --    0.39980   0.40081   0.41017   0.41059   0.41359
 Alpha virt. eigenvalues --    0.41664   0.42042   0.42272   0.42292   0.42373
 Alpha virt. eigenvalues --    0.42682   0.43103   0.43462   0.44031   0.44199
 Alpha virt. eigenvalues --    0.44537   0.44989   0.45042   0.45247   0.45386
 Alpha virt. eigenvalues --    0.45515   0.46012   0.46212   0.47279   0.47337
 Alpha virt. eigenvalues --    0.47852   0.48244   0.48869   0.49217   0.49576
 Alpha virt. eigenvalues --    0.50251   0.50344   0.51490   0.51814   0.51933
 Alpha virt. eigenvalues --    0.54617   0.54902   0.56284   0.56861   0.57352
 Alpha virt. eigenvalues --    0.57640   0.58163   0.59445   0.60515   0.62156
 Alpha virt. eigenvalues --    0.62574   0.63902   0.64988   0.65575   0.65870
 Alpha virt. eigenvalues --    0.67603   0.67624   0.68009   0.69370   0.70017
 Alpha virt. eigenvalues --    0.70500   0.71836   0.72000   0.73818   0.75605
 Alpha virt. eigenvalues --    0.75692   0.76314   0.76649   0.77388   0.77870
 Alpha virt. eigenvalues --    0.78088   0.78310   0.78723   0.78752   0.79296
 Alpha virt. eigenvalues --    0.81205   0.82347   0.82378   0.82875   0.82946
 Alpha virt. eigenvalues --    0.84244   0.84691   0.85127   0.85975   0.87052
 Alpha virt. eigenvalues --    0.87064   0.88336   0.88684   0.90469   0.90716
 Alpha virt. eigenvalues --    0.91470   0.93035   0.93522   0.94238   0.94252
 Alpha virt. eigenvalues --    0.94528   0.94875   0.96197   0.96315   0.97883
 Alpha virt. eigenvalues --    0.98095   0.98809   0.99260   0.99449   0.99657
 Alpha virt. eigenvalues --    1.01396   1.02936   1.03079   1.03327   1.03547
 Alpha virt. eigenvalues --    1.04428   1.07187   1.07364   1.08075   1.08908
 Alpha virt. eigenvalues --    1.09654   1.11699   1.12517   1.13325   1.14261
 Alpha virt. eigenvalues --    1.14315   1.14406   1.15095   1.15812   1.15929
 Alpha virt. eigenvalues --    1.17465   1.17919   1.20474   1.21910   1.22011
 Alpha virt. eigenvalues --    1.22731   1.22926   1.24882   1.25262   1.26260
 Alpha virt. eigenvalues --    1.27991   1.28559   1.29050   1.29740   1.30406
 Alpha virt. eigenvalues --    1.30694   1.30774   1.31721   1.32207   1.32685
 Alpha virt. eigenvalues --    1.32842   1.34347   1.35072   1.35285   1.36119
 Alpha virt. eigenvalues --    1.36944   1.39081   1.39426   1.39432   1.40458
 Alpha virt. eigenvalues --    1.40473   1.40879   1.40975   1.41555   1.42519
 Alpha virt. eigenvalues --    1.42549   1.43264   1.44028   1.44668   1.45353
 Alpha virt. eigenvalues --    1.45558   1.45825   1.46651   1.49108   1.49219
 Alpha virt. eigenvalues --    1.49489   1.50036   1.50233   1.51142   1.51554
 Alpha virt. eigenvalues --    1.52493   1.52868   1.53339   1.54496   1.54731
 Alpha virt. eigenvalues --    1.55851   1.56050   1.56526   1.56953   1.58807
 Alpha virt. eigenvalues --    1.59998   1.60623   1.62068   1.63664   1.64023
 Alpha virt. eigenvalues --    1.65175   1.65517   1.66746   1.69152   1.70307
 Alpha virt. eigenvalues --    1.72820   1.73251   1.76321   1.77340   1.77501
 Alpha virt. eigenvalues --    1.78412   1.78691   1.80629   1.82543   1.83968
 Alpha virt. eigenvalues --    1.84089   1.85364   1.85846   1.87293   1.89520
 Alpha virt. eigenvalues --    1.89592   1.90216   1.90503   1.92132   1.92423
 Alpha virt. eigenvalues --    1.94163   1.94551   1.95029   1.96242   1.96671
 Alpha virt. eigenvalues --    1.97049   1.98693   1.99329   1.99836   2.00171
 Alpha virt. eigenvalues --    2.00478   2.01422   2.01427   2.01988   2.03594
 Alpha virt. eigenvalues --    2.03868   2.05197   2.05924   2.06262   2.07545
 Alpha virt. eigenvalues --    2.07681   2.08097   2.09462   2.09533   2.11654
 Alpha virt. eigenvalues --    2.11874   2.13810   2.14162   2.15820   2.15876
 Alpha virt. eigenvalues --    2.16710   2.17242   2.18620   2.19215   2.19946
 Alpha virt. eigenvalues --    2.20486   2.22163   2.23675   2.23701   2.25701
 Alpha virt. eigenvalues --    2.25929   2.25948   2.26997   2.28065   2.28193
 Alpha virt. eigenvalues --    2.29925   2.30765   2.31857   2.32357   2.35310
 Alpha virt. eigenvalues --    2.36278   2.36304   2.38887   2.39952   2.40714
 Alpha virt. eigenvalues --    2.41622   2.44031   2.44552   2.44896   2.46651
 Alpha virt. eigenvalues --    2.49510   2.51305   2.51651   2.52907   2.53355
 Alpha virt. eigenvalues --    2.53589   2.53856   2.55137   2.55179   2.56745
 Alpha virt. eigenvalues --    2.56818   2.57414   2.60859   2.60914   2.62207
 Alpha virt. eigenvalues --    2.62214   2.63801   2.64102   2.67435   2.67993
 Alpha virt. eigenvalues --    2.68555   2.70080   2.71034   2.71731   2.71734
 Alpha virt. eigenvalues --    2.73163   2.75138   2.75591   2.77511   2.79149
 Alpha virt. eigenvalues --    2.79842   2.81338   2.81668   2.82260   2.82480
 Alpha virt. eigenvalues --    2.83458   2.84027   2.87262   2.88489   2.88585
 Alpha virt. eigenvalues --    2.89516   2.89917   2.91487   2.94173   2.94846
 Alpha virt. eigenvalues --    2.97191   2.97848   2.98515   2.98976   3.02331
 Alpha virt. eigenvalues --    3.03399   3.03421   3.05706   3.08412   3.08637
 Alpha virt. eigenvalues --    3.12571   3.14051   3.18049   3.19641   3.19989
 Alpha virt. eigenvalues --    3.20439   3.23303   3.26739   3.31189   3.32668
 Alpha virt. eigenvalues --    3.35232   3.38355   3.38690   3.39522   3.39832
 Alpha virt. eigenvalues --    3.40534   3.43165   3.44254   3.51488   3.55208
 Alpha virt. eigenvalues --    3.55237   3.57909   3.57928   3.61193   3.61931
 Alpha virt. eigenvalues --    3.62740   3.74347   3.75970   4.10686   4.11118
 Alpha virt. eigenvalues --    4.37673   4.39253   4.40855   4.42450   4.42458
 Alpha virt. eigenvalues --    4.49336   4.51728   4.52668   4.55531   4.57618
 Alpha virt. eigenvalues --    4.61037   4.64343   4.64920   4.65998   4.66554
 Alpha virt. eigenvalues --    4.71908   4.71957   4.77723   4.83311   4.84411
 Alpha virt. eigenvalues --    4.88586   4.97659   5.01716   5.07761   5.21895
 Alpha virt. eigenvalues --    5.27722
  Beta  occ. eigenvalues --  -88.79869 -88.79869 -19.10458 -19.10458 -19.10283
  Beta  occ. eigenvalues --  -19.10283 -18.98406 -18.98406 -14.24159 -14.24159
  Beta  occ. eigenvalues --  -10.18063 -10.18063 -10.17976 -10.17976 -10.15253
  Beta  occ. eigenvalues --  -10.15253 -10.15064 -10.15064 -10.14016 -10.14016
  Beta  occ. eigenvalues --  -10.11497 -10.11496 -10.10821 -10.10821 -10.09835
  Beta  occ. eigenvalues --  -10.09835 -10.04919 -10.04874  -7.85673  -7.85673
  Beta  occ. eigenvalues --   -5.82145  -5.82144  -5.81780  -5.81780  -5.81270
  Beta  occ. eigenvalues --   -5.81270  -1.00339  -1.00338  -0.96976  -0.96975
  Beta  occ. eigenvalues --   -0.90138  -0.89644  -0.83013  -0.81753  -0.77304
  Beta  occ. eigenvalues --   -0.77223  -0.69677  -0.69651  -0.66481  -0.65356
  Beta  occ. eigenvalues --   -0.64990  -0.61094  -0.60854  -0.59803  -0.58323
  Beta  occ. eigenvalues --   -0.55090  -0.53443  -0.53345  -0.49572  -0.47794
  Beta  occ. eigenvalues --   -0.46266  -0.46240  -0.45362  -0.45105  -0.43186
  Beta  occ. eigenvalues --   -0.41956  -0.40939  -0.40732  -0.39852  -0.39691
  Beta  occ. eigenvalues --   -0.36520  -0.36518  -0.36065  -0.35333  -0.34431
  Beta  occ. eigenvalues --   -0.34051  -0.33983  -0.32657  -0.32204  -0.31987
  Beta  occ. eigenvalues --   -0.31165  -0.30766  -0.30399  -0.29802  -0.29688
  Beta  occ. eigenvalues --   -0.28454  -0.28125  -0.27733  -0.25939  -0.25649
  Beta  occ. eigenvalues --   -0.24868  -0.24086  -0.23890  -0.23515  -0.22858
  Beta  occ. eigenvalues --   -0.22122  -0.22032  -0.19783  -0.19268  -0.13444
  Beta  occ. eigenvalues --   -0.12501  -0.12165  -0.11880  -0.11865  -0.11620
  Beta  occ. eigenvalues --   -0.11571  -0.04689
  Beta virt. eigenvalues --    0.04567   0.06900   0.06916   0.08612   0.09327
  Beta virt. eigenvalues --    0.09342   0.09748   0.09765   0.10369   0.10415
  Beta virt. eigenvalues --    0.10598   0.10600   0.12149   0.12479   0.12750
  Beta virt. eigenvalues --    0.13357   0.13816   0.14003   0.14077   0.14196
  Beta virt. eigenvalues --    0.14469   0.14646   0.14853   0.15095   0.15128
  Beta virt. eigenvalues --    0.16051   0.16234   0.16482   0.17177   0.17193
  Beta virt. eigenvalues --    0.17684   0.17780   0.18584   0.18790   0.19429
  Beta virt. eigenvalues --    0.19448   0.19626   0.20133   0.20596   0.20637
  Beta virt. eigenvalues --    0.20878   0.21069   0.21481   0.21596   0.22688
  Beta virt. eigenvalues --    0.22695   0.23174   0.23482   0.23920   0.24001
  Beta virt. eigenvalues --    0.24275   0.24281   0.24689   0.25280   0.25369
  Beta virt. eigenvalues --    0.25763   0.25957   0.26388   0.26627   0.26872
  Beta virt. eigenvalues --    0.26956   0.27056   0.27577   0.27807   0.28069
  Beta virt. eigenvalues --    0.28330   0.28746   0.29062   0.29133   0.29439
  Beta virt. eigenvalues --    0.29702   0.29836   0.30118   0.30226   0.30538
  Beta virt. eigenvalues --    0.30860   0.31106   0.31312   0.31667   0.31705
  Beta virt. eigenvalues --    0.32133   0.32471   0.32796   0.32917   0.33015
  Beta virt. eigenvalues --    0.33580   0.33863   0.33929   0.34647   0.34771
  Beta virt. eigenvalues --    0.35482   0.35668   0.36196   0.36688   0.36724
  Beta virt. eigenvalues --    0.36929   0.37060   0.37184   0.37793   0.37886
  Beta virt. eigenvalues --    0.38211   0.38574   0.38620   0.38861   0.39432
  Beta virt. eigenvalues --    0.39572   0.40013   0.40143   0.41070   0.41104
  Beta virt. eigenvalues --    0.41408   0.41755   0.42095   0.42329   0.42399
  Beta virt. eigenvalues --    0.42510   0.42766   0.43209   0.43526   0.44131
  Beta virt. eigenvalues --    0.44276   0.44742   0.45056   0.45094   0.45408
  Beta virt. eigenvalues --    0.45474   0.45579   0.46044   0.46242   0.47310
  Beta virt. eigenvalues --    0.47430   0.47938   0.48289   0.48882   0.49281
  Beta virt. eigenvalues --    0.49611   0.50403   0.50452   0.51585   0.51846
  Beta virt. eigenvalues --    0.52108   0.54725   0.54960   0.56342   0.56937
  Beta virt. eigenvalues --    0.57378   0.57687   0.58228   0.59528   0.60561
  Beta virt. eigenvalues --    0.62230   0.62676   0.64054   0.65130   0.65692
  Beta virt. eigenvalues --    0.65953   0.67666   0.67687   0.68108   0.69449
  Beta virt. eigenvalues --    0.70131   0.70619   0.71918   0.72054   0.73883
  Beta virt. eigenvalues --    0.75634   0.75765   0.76508   0.76846   0.77906
  Beta virt. eigenvalues --    0.77978   0.78115   0.78692   0.78813   0.78895
  Beta virt. eigenvalues --    0.79416   0.81373   0.82420   0.82564   0.83011
  Beta virt. eigenvalues --    0.83086   0.84389   0.85014   0.85894   0.86326
  Beta virt. eigenvalues --    0.87151   0.87155   0.88662   0.89049   0.90604
  Beta virt. eigenvalues --    0.91310   0.91573   0.93194   0.93761   0.94299
  Beta virt. eigenvalues --    0.94319   0.94616   0.95094   0.96326   0.96470
  Beta virt. eigenvalues --    0.97943   0.98513   0.99017   0.99281   0.99462
  Beta virt. eigenvalues --    0.99702   1.01443   1.02964   1.03111   1.03447
  Beta virt. eigenvalues --    1.03708   1.04581   1.07292   1.07501   1.08297
  Beta virt. eigenvalues --    1.08985   1.09712   1.11803   1.12596   1.13383
  Beta virt. eigenvalues --    1.14322   1.14400   1.14463   1.15161   1.15851
  Beta virt. eigenvalues --    1.15994   1.17571   1.18004   1.20527   1.22010
  Beta virt. eigenvalues --    1.22085   1.22793   1.23004   1.24944   1.25398
  Beta virt. eigenvalues --    1.26382   1.28046   1.28620   1.29191   1.29864
  Beta virt. eigenvalues --    1.30473   1.30739   1.30782   1.31817   1.32317
  Beta virt. eigenvalues --    1.32805   1.32949   1.34464   1.35330   1.35370
  Beta virt. eigenvalues --    1.36176   1.37287   1.39233   1.39496   1.39596
  Beta virt. eigenvalues --    1.40855   1.40899   1.41204   1.41249   1.41822
  Beta virt. eigenvalues --    1.42626   1.42841   1.43448   1.44125   1.44743
  Beta virt. eigenvalues --    1.45475   1.45630   1.45944   1.46761   1.49333
  Beta virt. eigenvalues --    1.49427   1.49657   1.50188   1.50446   1.51257
  Beta virt. eigenvalues --    1.51678   1.52639   1.53087   1.53458   1.54599
  Beta virt. eigenvalues --    1.54880   1.55995   1.56257   1.56597   1.57076
  Beta virt. eigenvalues --    1.58954   1.60128   1.60731   1.62186   1.63952
  Beta virt. eigenvalues --    1.64299   1.65284   1.65609   1.66808   1.69261
  Beta virt. eigenvalues --    1.70501   1.72879   1.73363   1.76418   1.77478
  Beta virt. eigenvalues --    1.77672   1.78905   1.79252   1.80822   1.82823
  Beta virt. eigenvalues --    1.84051   1.84315   1.85469   1.85977   1.87364
  Beta virt. eigenvalues --    1.89682   1.89747   1.90364   1.90587   1.92247
  Beta virt. eigenvalues --    1.92523   1.94239   1.94629   1.95292   1.96344
  Beta virt. eigenvalues --    1.96810   1.97154   1.98710   1.99375   1.99945
  Beta virt. eigenvalues --    2.00262   2.00666   2.01515   2.01614   2.02155
  Beta virt. eigenvalues --    2.03719   2.03994   2.05315   2.06079   2.06329
  Beta virt. eigenvalues --    2.07635   2.07776   2.08165   2.09521   2.09663
  Beta virt. eigenvalues --    2.11765   2.12000   2.13881   2.14289   2.15997
  Beta virt. eigenvalues --    2.16007   2.16829   2.17421   2.18731   2.19454
  Beta virt. eigenvalues --    2.20149   2.20679   2.22373   2.23743   2.23754
  Beta virt. eigenvalues --    2.25870   2.26177   2.26180   2.27216   2.28367
  Beta virt. eigenvalues --    2.28425   2.30204   2.30970   2.31956   2.32459
  Beta virt. eigenvalues --    2.35498   2.36497   2.36570   2.39042   2.40049
  Beta virt. eigenvalues --    2.40808   2.41688   2.44337   2.44845   2.45084
  Beta virt. eigenvalues --    2.47203   2.49966   2.51648   2.51942   2.52969
  Beta virt. eigenvalues --    2.53578   2.53845   2.53976   2.55286   2.55375
  Beta virt. eigenvalues --    2.57037   2.57070   2.57701   2.61029   2.61308
  Beta virt. eigenvalues --    2.62329   2.62356   2.63880   2.64158   2.67472
  Beta virt. eigenvalues --    2.68051   2.68681   2.70327   2.71078   2.71781
  Beta virt. eigenvalues --    2.71846   2.73372   2.75240   2.75928   2.77698
  Beta virt. eigenvalues --    2.79220   2.80073   2.81512   2.81716   2.82281
  Beta virt. eigenvalues --    2.82524   2.83821   2.84133   2.87320   2.88500
  Beta virt. eigenvalues --    2.88669   2.89546   2.89973   2.91821   2.94232
  Beta virt. eigenvalues --    2.95226   2.97299   2.97952   2.98545   2.99070
  Beta virt. eigenvalues --    3.02372   3.03472   3.03501   3.05888   3.08681
  Beta virt. eigenvalues --    3.08786   3.12626   3.14064   3.18340   3.19784
  Beta virt. eigenvalues --    3.20085   3.20491   3.23379   3.26837   3.31250
  Beta virt. eigenvalues --    3.32723   3.35281   3.38375   3.38694   3.39578
  Beta virt. eigenvalues --    3.39872   3.40585   3.43296   3.44367   3.51567
  Beta virt. eigenvalues --    3.55219   3.55248   3.57948   3.57969   3.61273
  Beta virt. eigenvalues --    3.61991   3.62822   3.74419   3.76011   4.10775
  Beta virt. eigenvalues --    4.11202   4.37716   4.39416   4.40967   4.42457
  Beta virt. eigenvalues --    4.42541   4.49579   4.51934   4.52750   4.55679
  Beta virt. eigenvalues --    4.57682   4.61369   4.64457   4.65003   4.66137
  Beta virt. eigenvalues --    4.66770   4.71952   4.72015   4.77981   4.83344
  Beta virt. eigenvalues --    4.84451   4.88940   4.97905   5.01885   5.07888
  Beta virt. eigenvalues --    5.22041   5.27906
          Condensed to atoms (all electrons):
              1          2          3          4          5          6
     1  N    7.565875   0.927144  -0.108376   0.075743  -0.976899  -0.040595
     2  C    0.927144  12.838354  -0.393570  -0.956108  -6.402258  -0.469371
     3  C   -0.108376  -0.393570  12.354223   1.745651  -4.313575  -1.246225
     4  C    0.075743  -0.956108   1.745651  19.584178  -4.596439  -4.313520
     5  C   -0.976899  -6.402258  -4.313575  -4.596439  19.584144   1.745572
     6  C   -0.040595  -0.469371  -1.246225  -4.313520   1.745572  12.354078
     7  C    0.103243   1.946789  -0.469396  -6.402252  -0.956088  -0.393551
     8  N    0.007676   0.103244  -0.040596  -0.976909   0.075744  -0.108350
     9  O   -0.127200   0.176601   0.003532  -0.148713   0.112057   0.094060
    10  O   -0.006927  -0.011263   0.094061   0.112063  -0.148713   0.003531
    11  H    0.000288   0.016735  -0.009713  -0.033297   0.077070  -0.043990
    12  H    0.302418  -0.042636  -0.043990   0.077070  -0.033296  -0.009713
    13  C    0.068769   0.093911  -1.174053  -0.201853  -0.008887  -0.057587
    14  C    0.145509  -0.427785  -2.604173  -0.240717   1.911027   0.322848
    15  C   -0.012526  -0.020363  -0.089491   0.023797   0.020921   0.004185
    16  H   -0.001344  -0.000440   0.010533   0.000821  -0.002304  -0.000049
    17  C   -0.001995  -0.006735   0.036300  -0.009873   0.009808   0.000441
    18  H    0.000583  -0.000266  -0.014167   0.002103   0.000326   0.000003
    19  C   -0.423433  -1.010631   2.306256   0.435888   0.617686  -0.225116
    20  C    0.018864   0.050876  -0.532452   0.252199  -0.071521   0.023303
    21  H    0.000223  -0.000235  -0.005595   0.002136   0.001210   0.000063
    22  S    0.013320   0.064907  -0.120008  -0.189032  -0.046490  -0.080510
    23  C    0.060507   0.140708   0.322840   1.910955  -0.240683  -2.604032
    24  C   -0.001569  -0.007518  -0.057587  -0.008916  -0.201838  -1.174026
    25  C    0.000029  -0.004720   0.000441   0.009811  -0.009872   0.036301
    26  H    0.000000   0.000075   0.000003   0.000326   0.002103  -0.014166
    27  C    0.000403   0.002497   0.004184   0.020914   0.023799  -0.089483
    28  H    0.000000   0.000133  -0.000049  -0.002304   0.000821   0.010533
    29  C    0.003556   0.272773   0.023302  -0.071523   0.252203  -0.532462
    30  H    0.000004  -0.000280   0.000063   0.001210   0.002136  -0.005595
    31  C   -0.139450  -1.649677  -0.225115   0.617696   0.435880   2.306197
    32  S    0.002076  -0.038641  -0.080511  -0.046492  -0.189028  -0.120009
    33  O    0.001884   0.002255  -0.018416   0.008480  -0.002212   0.000094
    34  O    0.046374  -0.010511  -0.121671   0.017450  -0.024922  -0.004699
    35  H    0.001347   0.000771  -0.023201   0.002104   0.000652   0.000017
    36  H   -0.000067   0.000084  -0.000942   0.000127  -0.000115   0.000000
    37  O   -0.000414   0.003719  -0.004699  -0.024917   0.017449  -0.121678
    38  O    0.000018   0.002112   0.000094  -0.002212   0.008479  -0.018414
    39  H    0.000000   0.000005   0.000017   0.000652   0.002104  -0.023199
    40  H    0.000000   0.000011   0.000000  -0.000115   0.000127  -0.000942
              7          8          9         10         11         12
     1  N    0.103243   0.007676  -0.127200  -0.006927   0.000288   0.302418
     2  C    1.946789   0.103244   0.176601  -0.011263   0.016735  -0.042636
     3  C   -0.469396  -0.040596   0.003532   0.094061  -0.009713  -0.043990
     4  C   -6.402252  -0.976909  -0.148713   0.112063  -0.033297   0.077070
     5  C   -0.956088   0.075744   0.112057  -0.148713   0.077070  -0.033296
     6  C   -0.393551  -0.108350   0.094060   0.003531  -0.043990  -0.009713
     7  C   12.838301   0.927139  -0.011262   0.176597  -0.042636   0.016735
     8  N    0.927139   7.565874  -0.006927  -0.127201   0.302417   0.000288
     9  O   -0.011262  -0.006927   8.523722   0.000035  -0.000002   0.001155
    10  O    0.176597  -0.127201   0.000035   8.523723   0.001155  -0.000002
    11  H   -0.042636   0.302417  -0.000002   0.001155   0.400299   0.000000
    12  H    0.016735   0.000288   0.001155  -0.000002   0.000000   0.400299
    13  C   -0.007517  -0.001569  -0.000323  -0.010696  -0.000042   0.033873
    14  C    0.140719   0.060507   0.007958  -0.022925   0.000031   0.058868
    15  C    0.002496   0.000403   0.000448   0.000035   0.000000  -0.003428
    16  H    0.000133   0.000000  -0.000015   0.000000   0.000000  -0.000172
    17  C   -0.004720   0.000029  -0.000088   0.000017   0.000000  -0.001487
    18  H    0.000075   0.000000   0.000000   0.000000   0.000000   0.000001
    19  C   -1.649679  -0.139450   0.029326  -0.003637  -0.001772  -0.070228
    20  C    0.272771   0.003556   0.000231   0.016582   0.000018   0.004120
    21  H   -0.000280   0.000004   0.000000  -0.000017   0.000000   0.000000
    22  S   -0.038634   0.002076  -0.002472  -0.025877   0.000867  -0.007002
    23  C   -0.427774   0.145499  -0.022925   0.007957   0.058869   0.000031
    24  C    0.093916   0.068760  -0.010695  -0.000323   0.033873  -0.000042
    25  C   -0.006736  -0.001994   0.000017  -0.000088  -0.001487   0.000000
    26  H   -0.000266   0.000583   0.000000   0.000000   0.000001   0.000000
    27  C   -0.020363  -0.012530   0.000035   0.000448  -0.003427   0.000000
    28  H   -0.000440  -0.001344   0.000000  -0.000015  -0.000172   0.000000
    29  C    0.050876   0.018861   0.016582   0.000231   0.004120   0.000018
    30  H   -0.000235   0.000223  -0.000017   0.000000   0.000000   0.000000
    31  C   -1.010616  -0.423420  -0.003638   0.029326  -0.070229  -0.001772
    32  S    0.064905   0.013320  -0.025878  -0.002472  -0.007002   0.000867
    33  O    0.002112   0.000018  -0.000001   0.000009   0.000000  -0.000015
    34  O    0.003719  -0.000414  -0.000939   0.000156   0.000000   0.003339
    35  H    0.000005   0.000000   0.000002   0.000000   0.000000   0.000064
    36  H    0.000011   0.000000   0.000000   0.000000   0.000000   0.000000
    37  O   -0.010512   0.046377   0.000156  -0.000939   0.003340   0.000000
    38  O    0.002255   0.001884   0.000009  -0.000001  -0.000015   0.000000
    39  H    0.000771   0.001346   0.000000   0.000002   0.000064   0.000000
    40  H    0.000084  -0.000067   0.000000   0.000000   0.000000   0.000000
             13         14         15         16         17         18
     1  N    0.068769   0.145509  -0.012526  -0.001344  -0.001995   0.000583
     2  C    0.093911  -0.427785  -0.020363  -0.000440  -0.006735  -0.000266
     3  C   -1.174053  -2.604173  -0.089491   0.010533   0.036300  -0.014167
     4  C   -0.201853  -0.240717   0.023797   0.000821  -0.009873   0.002103
     5  C   -0.008887   1.911027   0.020921  -0.002304   0.009808   0.000326
     6  C   -0.057587   0.322848   0.004185  -0.000049   0.000441   0.000003
     7  C   -0.007517   0.140719   0.002496   0.000133  -0.004720   0.000075
     8  N   -0.001569   0.060507   0.000403   0.000000   0.000029   0.000000
     9  O   -0.000323   0.007958   0.000448  -0.000015  -0.000088   0.000000
    10  O   -0.010696  -0.022925   0.000035   0.000000   0.000017   0.000000
    11  H   -0.000042   0.000031   0.000000   0.000000   0.000000   0.000000
    12  H    0.033873   0.058868  -0.003428  -0.000172  -0.001487   0.000001
    13  C   13.640452  -2.776485  -0.130905  -0.026690   0.013694   0.105485
    14  C   -2.776485  12.689427   0.011703   0.050013  -0.011336  -0.115902
    15  C   -0.130905   0.011703   5.223255   0.386461   0.252423  -0.019457
    16  H   -0.026690   0.050013   0.386461   0.593093  -0.030520  -0.002151
    17  C    0.013694  -0.011336   0.252423  -0.030520   5.182489   0.414029
    18  H    0.105485  -0.115902  -0.019457  -0.002151   0.414029   0.592040
    19  C   -2.256044  -0.704586  -0.075040   0.006774  -0.023665  -0.020798
    20  C   -2.262815  -2.182043   0.004641  -0.006779  -0.152727  -0.007648
    21  H   -0.040582   0.032539   0.000299   0.000000  -0.001124  -0.000003
    22  S    0.397082  -0.183961   0.007864  -0.000341   0.017590  -0.001133
    23  C   -0.002773  -0.062980  -0.000320   0.000000  -0.000004   0.000000
    24  C   -0.000108  -0.002773  -0.000006   0.000000   0.000000   0.000000
    25  C    0.000000  -0.000004   0.000000   0.000000   0.000000   0.000000
    26  H    0.000000   0.000000   0.000000   0.000000   0.000000   0.000000
    27  C   -0.000006  -0.000320  -0.000001   0.000000   0.000000   0.000000
    28  H    0.000000   0.000000   0.000000   0.000000   0.000000   0.000000
    29  C   -0.000025  -0.000720  -0.000015   0.000000   0.000000   0.000000
    30  H    0.000000   0.000000   0.000000   0.000000   0.000000   0.000000
    31  C   -0.001971  -0.037110  -0.000761   0.000001   0.000230  -0.000001
    32  S    0.000877   0.006277  -0.000298  -0.000005  -0.000005   0.000000
    33  O    0.100338   0.090440  -0.026201   0.005811   0.074057  -0.048117
    34  O    0.349554  -0.084567   0.040234  -0.074784  -0.039300   0.005275
    35  H    0.079521  -0.098231   0.476090  -0.038438  -0.072632   0.004514
    36  H    0.062218  -0.062263  -0.037573   0.000347   0.372766  -0.039700
    37  O    0.000003   0.000476   0.000001   0.000000   0.000000   0.000000
    38  O    0.000000  -0.000002   0.000000   0.000000   0.000000   0.000000
    39  H    0.000000   0.000000   0.000000   0.000000   0.000000   0.000000
    40  H    0.000000   0.000000   0.000000   0.000000   0.000000   0.000000
             19         20         21         22         23         24
     1  N   -0.423433   0.018864   0.000223   0.013320   0.060507  -0.001569
     2  C   -1.010631   0.050876  -0.000235   0.064907   0.140708  -0.007518
     3  C    2.306256  -0.532452  -0.005595  -0.120008   0.322840  -0.057587
     4  C    0.435888   0.252199   0.002136  -0.189032   1.910955  -0.008916
     5  C    0.617686  -0.071521   0.001210  -0.046490  -0.240683  -0.201838
     6  C   -0.225116   0.023303   0.000063  -0.080510  -2.604032  -1.174026
     7  C   -1.649679   0.272771  -0.000280  -0.038634  -0.427774   0.093916
     8  N   -0.139450   0.003556   0.000004   0.002076   0.145499   0.068760
     9  O    0.029326   0.000231   0.000000  -0.002472  -0.022925  -0.010695
    10  O   -0.003637   0.016582  -0.000017  -0.025877   0.007957  -0.000323
    11  H   -0.001772   0.000018   0.000000   0.000867   0.058869   0.033873
    12  H   -0.070228   0.004120   0.000000  -0.007002   0.000031  -0.000042
    13  C   -2.256044  -2.262815  -0.040582   0.397082  -0.002773  -0.000108
    14  C   -0.704586  -2.182043   0.032539  -0.183961  -0.062980  -0.002773
    15  C   -0.075040   0.004641   0.000299   0.007864  -0.000320  -0.000006
    16  H    0.006774  -0.006779   0.000000  -0.000341   0.000000   0.000000
    17  C   -0.023665  -0.152727  -0.001124   0.017590  -0.000004   0.000000
    18  H   -0.020798  -0.007648  -0.000003  -0.001133   0.000000   0.000000
    19  C   10.176795  -0.797384   0.005573   0.204001  -0.037112  -0.001971
    20  C   -0.797384  12.144298   0.324083  -0.356276  -0.000720  -0.000025
    21  H    0.005573   0.324083   0.545812   0.008115   0.000000   0.000000
    22  S    0.204001  -0.356276   0.008115  16.099090   0.006277   0.000877
    23  C   -0.037112  -0.000720   0.000000   0.006277  12.689407  -2.776562
    24  C   -0.001971  -0.000025   0.000000   0.000877  -2.776562  13.640395
    25  C    0.000230   0.000000   0.000000  -0.000005  -0.011293   0.013652
    26  H   -0.000001   0.000000   0.000000   0.000000  -0.115904   0.105482
    27  C   -0.000761  -0.000015   0.000000  -0.000298   0.011673  -0.130891
    28  H    0.000001   0.000000   0.000000  -0.000005   0.050013  -0.026689
    29  C   -0.011601   0.000040   0.000000  -0.000307  -2.182126  -2.262706
    30  H    0.000002   0.000000   0.000000   0.000000   0.032537  -0.040579
    31  C    0.330264  -0.011601   0.000002  -0.006714  -0.704515  -2.256005
    32  S   -0.006714  -0.000307   0.000000   0.000054  -0.183958   0.397080
    33  O    0.067538  -0.396607  -0.003780   0.026792  -0.000002   0.000000
    34  O   -0.295927  -0.016345  -0.000589   0.031150   0.000476   0.000003
    35  H   -0.007239  -0.007200  -0.000003   0.000178   0.000000   0.000000
    36  H    0.002200   0.042568  -0.000005  -0.000088   0.000000   0.000000
    37  O    0.000093  -0.000001   0.000000  -0.000244  -0.084557   0.349550
    38  O   -0.000026   0.000000   0.000000   0.000001   0.090440   0.100340
    39  H   -0.000005   0.000000   0.000000   0.000002  -0.098231   0.079519
    40  H    0.000000   0.000000   0.000000   0.000000  -0.062266   0.062221
             25         26         27         28         29         30
     1  N    0.000029   0.000000   0.000403   0.000000   0.003556   0.000004
     2  C   -0.004720   0.000075   0.002497   0.000133   0.272773  -0.000280
     3  C    0.000441   0.000003   0.004184  -0.000049   0.023302   0.000063
     4  C    0.009811   0.000326   0.020914  -0.002304  -0.071523   0.001210
     5  C   -0.009872   0.002103   0.023799   0.000821   0.252203   0.002136
     6  C    0.036301  -0.014166  -0.089483   0.010533  -0.532462  -0.005595
     7  C   -0.006736  -0.000266  -0.020363  -0.000440   0.050876  -0.000235
     8  N   -0.001994   0.000583  -0.012530  -0.001344   0.018861   0.000223
     9  O    0.000017   0.000000   0.000035   0.000000   0.016582  -0.000017
    10  O   -0.000088   0.000000   0.000448  -0.000015   0.000231   0.000000
    11  H   -0.001487   0.000001  -0.003427  -0.000172   0.004120   0.000000
    12  H    0.000000   0.000000   0.000000   0.000000   0.000018   0.000000
    13  C    0.000000   0.000000  -0.000006   0.000000  -0.000025   0.000000
    14  C   -0.000004   0.000000  -0.000320   0.000000  -0.000720   0.000000
    15  C    0.000000   0.000000  -0.000001   0.000000  -0.000015   0.000000
    16  H    0.000000   0.000000   0.000000   0.000000   0.000000   0.000000
    17  C    0.000000   0.000000   0.000000   0.000000   0.000000   0.000000
    18  H    0.000000   0.000000   0.000000   0.000000   0.000000   0.000000
    19  C    0.000230  -0.000001  -0.000761   0.000001  -0.011601   0.000002
    20  C    0.000000   0.000000  -0.000015   0.000000   0.000040   0.000000
    21  H    0.000000   0.000000   0.000000   0.000000   0.000000   0.000000
    22  S   -0.000005   0.000000  -0.000298  -0.000005  -0.000307   0.000000
    23  C   -0.011293  -0.115904   0.011673   0.050013  -2.182126   0.032537
    24  C    0.013652   0.105482  -0.130891  -0.026689  -2.262706  -0.040579
    25  C    5.182501   0.414026   0.252418  -0.030522  -0.152742  -0.001124
    26  H    0.414026   0.592040  -0.019457  -0.002151  -0.007643  -0.000003
    27  C    0.252418  -0.019457   5.223257   0.386463   0.004654   0.000299
    28  H   -0.030522  -0.002151   0.386463   0.593095  -0.006779   0.000000
    29  C   -0.152742  -0.007643   0.004654  -0.006779  12.144259   0.324081
    30  H   -0.001124  -0.000003   0.000299   0.000000   0.324081   0.545812
    31  C   -0.023661  -0.020796  -0.075034   0.006774  -0.797383   0.005574
    32  S    0.017590  -0.001133   0.007865  -0.000341  -0.356266   0.008115
    33  O    0.000000   0.000000   0.000000   0.000000   0.000000   0.000000
    34  O    0.000000   0.000000   0.000001   0.000000  -0.000001   0.000000
    35  H    0.000000   0.000000   0.000000   0.000000   0.000000   0.000000
    36  H    0.000000   0.000000   0.000000   0.000000   0.000000   0.000000
    37  O   -0.039299   0.005275   0.040230  -0.074786  -0.016341  -0.000589
    38  O    0.074058  -0.048118  -0.026203   0.005812  -0.396610  -0.003780
    39  H   -0.072632   0.004514   0.476090  -0.038439  -0.007198  -0.000003
    40  H    0.372764  -0.039700  -0.037572   0.000347   0.042568  -0.000005
             31         32         33         34         35         36
     1  N   -0.139450   0.002076   0.001884   0.046374   0.001347  -0.000067
     2  C   -1.649677  -0.038641   0.002255  -0.010511   0.000771   0.000084
     3  C   -0.225115  -0.080511  -0.018416  -0.121671  -0.023201  -0.000942
     4  C    0.617696  -0.046492   0.008480   0.017450   0.002104   0.000127
     5  C    0.435880  -0.189028  -0.002212  -0.024922   0.000652  -0.000115
     6  C    2.306197  -0.120009   0.000094  -0.004699   0.000017   0.000000
     7  C   -1.010616   0.064905   0.002112   0.003719   0.000005   0.000011
     8  N   -0.423420   0.013320   0.000018  -0.000414   0.000000   0.000000
     9  O   -0.003638  -0.025878  -0.000001  -0.000939   0.000002   0.000000
    10  O    0.029326  -0.002472   0.000009   0.000156   0.000000   0.000000
    11  H   -0.070229  -0.007002   0.000000   0.000000   0.000000   0.000000
    12  H   -0.001772   0.000867  -0.000015   0.003339   0.000064   0.000000
    13  C   -0.001971   0.000877   0.100338   0.349554   0.079521   0.062218
    14  C   -0.037110   0.006277   0.090440  -0.084567  -0.098231  -0.062263
    15  C   -0.000761  -0.000298  -0.026201   0.040234   0.476090  -0.037573
    16  H    0.000001  -0.000005   0.005811  -0.074784  -0.038438   0.000347
    17  C    0.000230  -0.000005   0.074057  -0.039300  -0.072632   0.372766
[...]
 02508373,-0.01006728,0.01166529,-0.00011156,-0.00003820,-0.00014183,0.
 00008845,0.00014851,-0.00003081,0.00001197,0.00002482,0.00000497,-0.00
 000368,-0.00001869,-0.00004793,0.00005059,-0.00000240,-0.00001868,-0.0
 0004112,0.00000191,0.00000406,0.00000059,-0.00000083,-0.00001393,-0.00
 000179,0.00000180,0.00000150,-0.00002158,0.00001006,-0.00001131,0.0000
 0031,-0.00000031,0.00000336,0.00003646,0.00000461,-0.00001104,0.000000
 81,-0.00000074,0.00000016,-0.00007560,0.00000013,0.00000818,-0.0000101
 7,0.00000256,-0.00001424,-0.00074347,0.00245416,0.00099587,-0.00511282
 ,-0.00033590,0.00020157,0.00089525,0.00035050,-0.00035302,-0.09414760,
 0.09480343,0.00009992,-0.00000457,0.00000466,-0.00007742,0.00004853,-0
 .00017377,-0.00015162,0.00005289,-0.00015415,0.00008377,-0.00002146,0.
 00009891,0.00005903,-0.00004465,0.00013806,-0.00019112,-0.00000613,0.0
 0003490,0.00002960,0.00001944,-0.00008793,0.00003387,0.00000765,-0.000
 02493,-0.00004251,-0.00003791,0.00015452,-0.00008400,-0.00000088,0.000
 00309,0.00000739,-0.00000100,0.00000610,-0.00012389,0.00000026,0.00000
 113,0.00503239,0.00130613,-0.00448109,0.00034791,0.00056355,-0.0018512
 6,0.00327353,-0.00495491,0.00432044,-0.00045006,-0.00052852,0.00016010
 ,-0.08033118,0.03971594,-0.08416692,0.00673447,-0.00238807,0.00579057,
 0.00005882,-0.00006144,0.00011924,-0.00184290,-0.00009869,-0.00020486,
 0.00003859,0.00003342,-0.00001634,-0.00030967,0.00002202,-0.00026091,-
 0.00011437,0.00000403,0.00003584,0.00008772,-0.00000276,-0.00001212,-0
 .00000163,0.00000284,0.00002851,0.00000364,-0.00000379,-0.00000317,0.0
 0004515,-0.00002163,0.00002341,-0.00000072,0.00000080,-0.00000692,-0.0
 0008453,-0.00001058,0.00002562,-0.00000183,0.00000195,-0.00000048,0.00
 017493,0.00000485,-0.00001768,0.00002224,-0.00000790,0.00003455,-0.031
 14578,0.01255454,-0.03138498,0.00330932,0.00110747,0.00193553,-0.00039
 570,0.00010075,-0.00000324,0.09598075,-0.04739048,0.11006686,-0.000435
 87,0.00012118,-0.00048038,0.00031659,-0.00033757,0.00127788,0.00067448
 ,-0.00005115,0.00017578,-0.00090771,0.00035995,-0.00138838,-0.00177935
 ,0.00050106,-0.00191007,0.00374113,-0.00159161,0.00372847,0.00413674,0
 .00045593,-0.00143961,-0.00880022,0.00015913,0.00111649,0.00014353,0.0
 0015440,-0.00061066,-0.00094934,-0.00016044,0.00058630,-0.00084627,0.0
 0006362,-0.00231725,0.00006951,-0.00000415,0.00003125,0.00020622,-0.00
 005735,0.00012690,-0.00005275,-0.00002302,0.00026729,0.00019462,-0.000
 10324,0.00011255,-0.00000087,0.00000406,-0.00002960,-0.00000807,0.0000
 1829,0.00011473,0.00001677,-0.00001843,-0.00001499,-0.00001647,0.00001
 190,-0.00001280,-0.00016654,-0.00001466,-0.00000273,-0.00001745,0.0000
 0674,-0.00000229,0.00009205,-0.00000269,0.00001145,-0.10420190,0.00690
 905,0.01996042,-0.00206272,-0.00610980,0.03609662,-0.04784436,0.019493
 20,-0.02549022,0.00283711,0.00105688,0.00003165,-0.16784469,0.04434155
 ,-0.01604053,-0.00051650,0.00195401,-0.00467547,-0.00554458,0.00052443
 ,-0.00184230,0.00038292,-0.00028187,0.00153881,0.01025472,0.00691152,-
 0.02768414,-0.00106260,0.00053961,-0.00357949,-0.00020163,0.00005087,-
 0.00019149,-0.00015099,0.00008055,-0.00034840,-0.00002951,0.00003234,0
 .00001430,-0.00002939,0.00000845,-0.00001717,0.33340911,-0.00041075,-0
 .00011439,0.00024610,0.00019941,0.00000685,0.00009920,0.00092296,0.000
 09909,-0.00033238,0.00009257,0.00036224,-0.00089374,-0.00073397,-0.000
 54529,-0.00052789,0.00064931,-0.00240628,-0.00079023,0.00024565,-0.000
 00900,0.00168847,0.00090138,0.00149218,-0.00007691,0.00000496,-0.00008
 061,0.00016157,0.00028529,0.00036373,-0.00109179,-0.00004396,-0.001602
 03,0.00037381,-0.00003223,0.00001644,-0.00001920,-0.00046786,0.0000149
 6,0.00006168,0.00061350,-0.00005070,-0.00022362,-0.00023734,0.00010803
 ,-0.00012207,0.00000487,-0.00000404,0.00003748,0.00001127,-0.00002126,
 -0.00015545,-0.00001846,0.00002195,0.00001770,-0.00092400,-0.00000980,
 0.00012044,0.00047597,0.00007308,-0.00013217,0.00000968,-0.00001403,0.
 00000215,-0.00012980,0.00003029,-0.00018659,-0.00034744,-0.03744583,0.
 05691041,-0.00107151,-0.00351971,0.01061571,-0.00797625,0.00936838,-0.
 00446427,0.00109204,0.00309004,-0.00151071,0.05730629,-0.08784999,0.01
 814681,0.00629811,-0.00226900,0.00546622,-0.00047404,0.00251412,-0.001
 15352,0.00001894,0.00127557,0.00076878,-0.00433836,0.00039662,0.008878
 71,0.00036589,0.00316799,0.00296115,0.00023299,-0.00004410,0.00020772,
 0.00008040,-0.00009059,0.00052048,0.00003490,-0.00003498,-0.00002369,0
 .00002996,-0.00000960,0.00002042,-0.08507727,0.12828016,0.00204066,0.0
 0020213,-0.00083916,-0.00078731,-0.00022819,0.00114717,-0.00404369,-0.
 00043275,0.00174030,-0.00016723,-0.00120767,0.00446565,0.00215926,-0.0
 0010440,-0.00012013,-0.00051843,-0.00045654,0.00014358,-0.00292077,0.0
 0174803,-0.00660824,0.00067248,-0.00040895,0.00182192,0.00062839,0.000
 38309,-0.00159521,-0.00077706,-0.00124472,0.00493574,-0.00284247,0.000
 66569,-0.00222924,0.00013019,-0.00002065,0.00011988,0.00206569,-0.0001
 2854,-0.00011440,-0.00258049,0.00004336,0.00113044,0.00110565,-0.00052
 523,0.00056500,-0.00002553,0.00001962,-0.00017157,-0.00004444,0.000071
 21,0.00068889,0.00008638,-0.00009073,-0.00007847,0.00390958,0.00014878
 ,-0.00052613,-0.00227377,-0.00024915,0.00056686,-0.00003729,0.00004728
 ,-0.00001444,0.00056350,-0.00014291,0.00071764,0.05585130,0.04517158,-
 0.24590885,-0.00525100,0.00960805,-0.03312656,-0.00415369,0.00238793,-
 0.00521317,0.00074803,0.00006873,0.00087895,-0.04360932,0.02801680,-0.
 09597564,-0.03800194,0.01888643,-0.01780867,0.00052697,0.00106679,-0.0
 0415382,-0.00018528,0.00046179,-0.00093737,0.00983431,0.00628275,-0.02
 823937,0.00298806,0.00311716,-0.00347504,-0.00103703,0.00022676,-0.000
 91723,-0.00034830,0.00052025,-0.00243105,-0.00016432,0.00017248,0.0001
 1431,-0.00013761,0.00004399,-0.00009318,0.02571668,-0.11406726,0.41315
 940,0.00030083,0.00013101,-0.00049764,-0.00003843,0.00007523,-0.000347
 83,-0.00210140,-0.00008861,0.00030446,0.00066257,-0.00026275,0.0010347
 4,0.00019454,-0.00031979,0.00117167,-0.00131920,0.00085761,-0.00261995
 ,0.00023794,0.00048663,-0.00194375,0.00022304,0.00002246,-0.00023354,-
 0.00039834,0.00005944,-0.00011343,-0.00073909,-0.00042658,0.00171114,-
 0.00035067,0.00004174,-0.00014541,0.00007243,-0.00001763,0.00007287,0.
 00098548,-0.00002521,-0.00015143,-0.00129799,0.00004717,0.00039829,0.0
 0050933,-0.00024775,0.00026671,-0.00000823,0.00000854,-0.00007910,-0.0
 0002158,0.00003066,0.00032581,0.00004182,-0.00004215,-0.00003583,0.001
 95727,0.00004981,-0.00021847,-0.00090083,-0.00011550,0.00028499,-0.000
 02383,0.00001964,-0.00000627,0.00026310,-0.00008644,0.00040044,-0.0396
 2244,0.01087896,-0.03594616,-0.22999856,0.02750886,-0.04934628,-0.0940
 5403,0.00443885,0.01192316,0.00252607,0.00073739,0.00595051,-0.0083791
 9,-0.00090190,0.03475797,-0.00433125,-0.00360169,0.00090165,0.00305410
 ,0.00245305,-0.00789370,0.00043273,-0.00010493,-0.00030877,-0.00093475
 ,-0.00078615,0.00473405,-0.00427201,-0.00093520,-0.00099639,-0.0005118
 3,0.00010741,-0.00044867,-0.00020164,0.00023301,-0.00103721,-0.0000730
 3,0.00007715,0.00004986,-0.00006745,0.00002205,-0.00004455,0.01022561,
 0.00017487,0.00317379,0.35720252,0.00001190,0.00003470,-0.00001564,-0.
 00027044,-0.00001156,0.00025598,0.00042704,0.00002626,-0.00003720,-0.0
 0015732,-0.00004631,-0.00028426,-0.00000811,-0.00037541,-0.00016898,-0
 .00053180,0.00071200,0.00025780,0.00007956,-0.00015654,0.00043211,0.00
 002156,0.00016111,-0.00013459,0.00029782,-0.00012506,-0.00011650,0.000
 09971,0.00013046,-0.00040935,0.00025371,-0.00006431,0.00007384,-0.0000
 2380,0.00000469,-0.00001664,-0.00020766,0.00000471,0.00000910,0.000250
 36,-0.00001237,-0.00009554,-0.00011530,0.00005320,-0.00005961,0.000001
 15,-0.00000242,0.00001609,0.00000179,-0.00001092,-0.00006543,-0.000008
 77,0.00001034,0.00000784,-0.00039533,0.00002281,0.00004951,0.00022941,
 0.00003358,-0.00005805,0.00000547,-0.00000566,0.00000173,-0.00005141,0
 .00001084,-0.00007449,-0.00179104,0.00271006,0.00225797,0.03022126,-0.
 03994890,0.01707796,0.00615023,-0.06145814,-0.00547015,0.00409761,0.00
 789149,-0.03102876,-0.00213935,0.00205578,0.02490031,-0.00510743,-0.00
 096098,0.00119840,0.00900152,0.00378993,0.00743680,-0.00015370,-0.0033
 2052,-0.00141711,0.00045477,0.00305739,0.00331758,0.00183725,0.0048324
 6,0.00106268,0.00010733,-0.00001917,0.00008840,0.00005089,-0.00004402,
 0.00022670,0.00001595,-0.00001623,-0.00001031,0.00001492,-0.00000479,0
 .00000917,-0.00098116,-0.00026868,-0.00502724,-0.04072439,0.07630195,0
 .00008699,0.00004627,-0.00014335,0.00073133,0.00032237,-0.00129809,-0.
 00200993,-0.00002701,0.00015601,0.00075605,-0.00036648,0.00132758,0.00
 064869,-0.00030036,0.00074826,0.00001484,0.00036916,-0.00037497,-0.000
 09917,0.00052979,-0.00213867,-0.00004771,-0.00002925,0.00019997,-0.001
 25878,-0.00010100,0.00035841,-0.00060460,-0.00046360,0.00189829,-0.000
 60140,0.00004631,-0.00029755,0.00009416,-0.00001755,0.00006397,0.00089
 784,-0.00002236,-0.00014028,-0.00118481,0.00004712,0.00032706,0.000466
 32,-0.00022779,0.00023635,-0.00000604,0.00000798,-0.00006676,-0.000010
 65,0.00002859,0.00026999,0.00003637,-0.00003556,-0.00003015,0.00186064
 ,0.00004671,-0.00017598,-0.00090060,-0.00010742,0.00027898,-0.00002321
 ,0.00001868,-0.00000826,0.00022758,-0.00008139,0.00037376,-0.00064676,
 -0.00146841,-0.00210196,-0.08710687,0.02622357,-0.13847331,0.04509657,
 -0.00706540,-0.19462820,0.00709444,-0.00657710,-0.03443001,0.00530355,
 0.00525115,-0.03714243,0.00505704,0.00228537,0.00069188,-0.04130802,0.
 00732095,-0.01849676,0.00105136,-0.00105848,0.00226889,0.00332721,0.00
 176232,-0.00283732,-0.00528215,0.00155555,-0.00369981,-0.00044868,0.00
 008846,-0.00036713,-0.00019136,0.00020788,-0.00091760,-0.00006566,0.00
 007127,0.00004474,-0.00006074,0.00001944,-0.00003868,0.00080349,-0.001
 56995,0.01137873,0.06620516,-0.02718026,0.44639086,0.00008747,0.000016
 78,-0.00008476,-0.00004535,-0.00004174,0.00018514,-0.00017959,-0.00003
 416,0.00012392,-0.00010202,-0.00003428,0.00011659,0.00000051,0.0000635
 3,-0.00012516,0.00003951,0.00005605,0.00023008,0.00012561,0.00009265,-
 0.00040056,-0.00009057,-0.00018383,-0.00009113,0.00006305,0.00003377,-
 0.00015483,-0.00011296,-0.00009986,0.00028138,0.00036711,0.00027751,-0
 .00000480,0.00001029,-0.00000112,0.00000979,0.00013227,-0.00001133,0.0
 0000268,-0.00015110,0.00000152,0.00008573,0.00007628,-0.00003599,0.000
 04006,-0.00000161,0.00000152,-0.00001192,-0.00000325,0.00000672,0.0000
 4807,0.00000603,-0.00000693,-0.00000575,0.00021825,0.00001153,-0.00003
 444,-0.00014533,-0.00001875,0.00003120,-0.00000326,0.00000418,-0.00000
 077,0.00003937,-0.00000668,0.00004228,-0.00006925,-0.00147889,0.005413
 63,-0.00056106,-0.00018341,-0.00023489,0.00234557,-0.02880091,-0.01046
 312,-0.00435942,-0.00321662,0.00225644,-0.04715982,0.01494468,0.007993
 22,0.00106886,0.00550078,0.00305827,0.00010010,0.00025369,-0.00038513,
 0.00000463,-0.00003567,-0.00005255,0.00009310,-0.00009490,-0.00061701,
 0.00018963,-0.00004771,-0.00020276,-0.00007299,0.00001592,-0.00006564,
 -0.00002950,0.00003489,-0.00016432,-0.00001143,0.00001161,0.00000736,-
 0.00000977,0.00000293,-0.00000647,-0.01664497,0.03559014,-0.00131422,0
 .00199480,0.00259039,-0.00026044,0.06172286,-0.00008641,-0.00001506,0.
 00009351,0.00004396,0.00004483,-0.00022316,0.00015309,0.00003651,-0.00
 013958,0.00010651,0.00002161,-0.00009748,0.00003099,-0.00005663,0.0001
 7396,-0.00005845,0.00005742,-0.00024649,-0.00018320,-0.00010706,0.0003
 6134,0.00017814,0.00008309,0.00007340,-0.00007538,-0.00002795,0.000179
 31,0.00012046,0.00010733,-0.00026776,-0.00032838,-0.00016746,0.0000085
 4,-0.00001166,-0.00000271,-0.00001174,-0.00013375,0.00001287,-0.000010
 27,0.00014374,0.00000202,-0.00009379,-0.00007945,0.00003546,-0.0000430
 0,0.00000161,-0.00000192,0.00001264,0.00000343,-0.00000869,-0.00005172
 ,-0.00000620,0.00000833,0.00000631,-0.00020377,-0.00000735,0.00003445,
 0.00014594,0.00002056,-0.00002829,0.00000350,-0.00000529,0.00000045,-0
 .00004024,0.00000469,-0.00003841,0.00001777,0.00084626,-0.00340507,0.0
 0098046,-0.00036330,0.00031010,-0.00085073,-0.01837155,-0.00865898,-0.
 00308196,-0.00056233,0.00061928,0.01401564,-0.26248410,-0.07933101,-0.
 00093687,0.00231969,-0.00030292,-0.00001578,-0.00016441,0.00081812,-0.
 00001077,-0.00001052,0.00003511,-0.00021494,-0.00010898,0.00065120,-0.
 00023636,-0.00005492,0.00007166,0.00007713,-0.00001623,0.00007124,0.00
 003237,-0.00003499,0.00017244,0.00001160,-0.00001135,-0.00000718,0.000
 01029,-0.00000319,0.00000680,0.01616844,-0.01395588,0.00477266,0.00096
 849,0.00255406,-0.00054551,-0.02607327,0.29003666,-0.00011725,-0.00001
 198,0.00005571,0.00009062,0.00000178,-0.00001353,0.00022346,0.00001387
 ,-0.00007903,-0.00002245,0.00007711,-0.00023700,-0.00020062,0.00004451
 ,-0.00008060,0.00045358,0.00010499,0.00014073,0.00014237,-0.00009719,0
 .00029278,-0.00011845,-0.00004123,-0.00000860,-0.00004297,-0.00001268,
 0.00006396,0.00004958,0.00008353,-0.00021802,0.00014883,-0.00000968,-0
 .00000536,-0.00000519,-0.00000119,-0.00000581,-0.00010106,0.00000408,0
 .00001176,0.00013397,-0.00000209,-0.00004829,-0.00005078,0.00002249,-0
 .00002623,0.00000124,-0.00000108,0.00000820,0.00000244,-0.00000438,-0.
 00003424,-0.00000410,0.00000487,0.00000395,-0.00020463,-0.00000464,0.0
 0002647,0.00010482,0.00001502,-0.00002732,0.00000174,-0.00000351,0.000
 00029,-0.00002843,0.00000603,-0.00003975,0.00003717,0.00027908,0.00368
 894,-0.00035928,-0.00028014,-0.00047436,0.00171071,0.00685235,0.001921
 81,0.00075874,0.00138747,0.00048721,0.00898670,-0.08377654,-0.08639338
 ,0.00140913,-0.02844034,-0.00856547,0.00014916,0.00015224,0.00020484,-
 0.00000049,-0.00006270,-0.00002271,-0.00099652,-0.00003103,-0.00048171
 ,-0.00009855,-0.00016620,0.00000278,0.00004984,-0.00001029,0.00004474,
 0.00001431,-0.00002365,0.00011429,0.00000736,-0.00000719,-0.00000514,0
 .00000629,-0.00000212,0.00000443,-0.00694239,0.01892904,0.00506686,-0.
 00010719,0.00043534,0.00217843,-0.00484947,0.08492908,0.08245160,0.000
 04909,0.00002386,-0.00009084,-0.00004249,-0.00002565,0.00012442,-0.000
 12988,-0.00002477,0.00009300,-0.00007407,-0.00000514,0.00003819,-0.000
 00791,0.00001137,-0.00007523,-0.00009845,-0.00006841,0.00020870,0.0002
 2826,0.00006438,-0.00025922,-0.00020165,0.00002349,-0.00006392,0.00003
 659,0.00002527,-0.00010793,-0.00011412,-0.00004914,0.00018431,0.000294
 11,-0.00000456,-0.00007097,0.00001075,-0.00000133,0.00000893,0.0001164
 3,-0.00000850,-0.00000184,-0.00013169,0.00000136,0.00006885,0.00006701
 ,-0.00003228,0.00003554,-0.00000113,0.00000123,-0.00001041,-0.00000277
 ,0.00000466,0.00004263,0.00000551,-0.00000590,-0.00000492,0.00018390,0
 .00000676,-0.00002610,-0.00011088,-0.00001360,0.00002802,-0.00000336,0
 .00000277,-0.00000075,0.00003488,-0.00000724,0.00003745,-0.00001041,-0
 .00057974,0.00285547,0.00110461,-0.00009686,0.00185554,-0.23064193,0.0
 8647586,-0.09079390,-0.00131770,0.00066313,-0.00054185,-0.01609250,0.0
 1489845,-0.01106968,0.00026715,0.00014087,0.00069841,0.00024577,0.0000
 7515,0.00016011,0.00000134,-0.00000533,-0.00003752,0.00027369,0.000015
 90,-0.00012859,0.00004902,0.00008327,-0.00008421,-0.00006739,0.0000149
 4,-0.00006065,-0.00002939,0.00002993,-0.00013755,-0.00000977,0.0000102
 7,0.00000629,-0.00000893,0.00000292,-0.00000590,-0.00658636,-0.0033581
 1,-0.00097974,0.00876160,-0.00355457,0.00235801,0.00106792,-0.00058599
 ,-0.00023225,0.24288517,-0.00002581,-0.00000264,0.00001391,0.00001252,
 -0.00000234,0.00000608,0.00008151,0.00000484,-0.00001830,-0.00003576,0
 .00001514,-0.00005823,-0.00003533,0.00000260,-0.00003761,0.00007467,-0
 .00003689,0.00006669,0.00006560,-0.00001123,0.00003614,-0.00012820,0.0
 0001086,0.00002970,0.00000218,-0.00000036,0.00001019,0.00000777,0.0000
 1223,-0.00003986,0.00012263,-0.00000866,-0.00003335,-0.00000300,0.0000
 0061,-0.00000319,-0.00004111,0.00000206,0.00000384,0.00005045,-0.00000
 240,-0.00001876,-0.00002155,0.00001004,-0.00001131,0.00000031,-0.00000
 031,0.00000339,0.00000058,-0.00000083,-0.00001395,-0.00000178,0.000001
 81,0.00000149,-0.00007549,0.00000006,0.00000826,0.00003659,0.00000456,
 -0.00001094,0.00000080,-0.00000074,0.00000018,-0.00001024,0.00000256,-
 0.00001420,-0.00003605,-0.00029634,0.00074682,-0.00149372,0.00071185,-
 0.00092757,0.08769347,-0.09643543,0.04357111,0.02508368,-0.01006746,0.
 01166523,-0.01306356,0.00822491,-0.00849670,0.00082743,0.00049018,0.00
 021984,0.00008856,0.00014852,-0.00003080,0.00001199,0.00002483,0.00000
 497,-0.00011212,-0.00003820,-0.00014178,-0.00000375,-0.00001867,-0.000
 04812,0.00002207,-0.00000478,0.00001947,0.00000843,-0.00000963,0.00004
 400,0.00000293,-0.00000320,-0.00000211,0.00000292,-0.00000108,0.000001
 94,-0.00511277,-0.00033589,0.00020159,-0.00074338,0.00245416,0.0009959
 2,0.00089524,0.00035049,-0.00035301,-0.09414874,0.09480476,0.00003380,
 0.00000760,-0.00002505,0.00002983,0.00001951,-0.00008822,-0.00019109,-
 0.00000603,0.00003476,0.00005916,-0.00004466,0.00013830,0.00008394,-0.
 00002149,0.00009906,-0.00015152,0.00005295,-0.00015430,-0.00007710,0.0
 0004863,-0.00017412,0.00009983,-0.00000463,0.00000461,-0.00008426,-0.0
 0000093,0.00000337,-0.00004278,-0.00003798,0.00015482,-0.00012385,0.00
 000027,0.00000114,0.00000742,-0.00000100,0.00000611,0.00008772,-0.0000
 0267,-0.00001228,-0.00011430,0.00000398,0.00003586,0.00004515,-0.00002
 163,0.00002342,-0.00000072,0.00000079,-0.00000689,-0.00000161,0.000002
 82,0.00002851,0.00000364,-0.00000378,-0.00000318,0.00017461,0.00000483
 ,-0.00001760,-0.00008444,-0.00001059,0.00002568,-0.00000184,0.00000195
 ,-0.00000046,0.00002221,-0.00000792,0.00003448,0.00034801,0.00056354,-
 0.00185121,0.00503238,0.00130618,-0.00448124,-0.08033057,0.03971628,-0
 .08416656,0.00673451,-0.00238813,0.00579058,0.00327350,-0.00495494,0.0
 0432042,-0.00045006,-0.00052852,0.00016012,-0.00184280,-0.00009869,-0.
 00020481,0.00003858,0.00003342,-0.00001632,0.00005840,-0.00006146,0.00
 011929,-0.00030968,0.00002202,-0.00026100,-0.00004452,0.00000917,-0.00
 003864,-0.00001719,0.00002040,-0.00009312,-0.00000647,0.00000680,0.000
 00443,-0.00000590,0.00000193,-0.00000387,0.00330932,0.00110741,0.00193
 558,-0.03114571,0.01255480,-0.03138485,-0.00039570,0.00010076,-0.00000
 323,0.09598011,-0.04739098,0.11006644||-0.00000098,-0.00000222,0.00000
 156,0.00000037,-0.00000064,0.00000628,-0.00000071,-0.00000052,-0.00000
 309,0.00000407,-0.00000099,0.00000278,-0.00000406,0.00000003,-0.000003
 03,0.00000072,0.00000027,0.00000302,-0.00000037,0.00000416,-0.00000535
 ,0.00000098,0.00000125,-0.00000183,0.00000242,-0.00000094,-0.00000281,
 -0.00000243,-0.00000021,0.00000251,-0.00000129,0.00000136,0.00000135,0
 .00000129,-0.00000147,-0.00000138,0.00000281,-0.00000084,-0.00000273,-
 0.00000166,-0.00000125,-0.00000096,0.00000051,-0.00000264,-0.00000174,
 0.00000104,-0.00000272,-0.00000204,0.00000090,-0.00000267,-0.00000141,
 0.00000084,-0.00000303,-0.00000179,-0.00000085,-0.00000050,-0.00000065
 ,-0.00000095,-0.00000223,-0.00000154,-0.00000064,0.00000005,-0.0000019
 7,0.00000049,-0.00000002,-0.00000142,0.00000164,0.00000128,0.00000092,
 -0.00000283,0.00000084,0.00000276,-0.00000090,0.00000267,0.00000140,-0
 .00000084,0.00000303,0.00000179,-0.00000050,0.00000265,0.00000176,-0.0
 0000104,0.00000272,0.00000204,0.00000096,0.00000219,0.00000152,0.00000
 065,-0.00000005,0.00000196,0.00000086,0.00000035,0.00000063,-0.0000005
 1,0.00000007,0.00000143,-0.00000062,-0.00000218,-0.00000217,0.00000150
 ,-0.00000225,-0.00000147,0.00000057,-0.00000228,-0.00000290,0.00000095
 ,-0.00000343,-0.00000243,-0.00000149,0.00000227,0.00000147,0.00000061,
 0.00000220,0.00000216,-0.00000057,0.00000228,0.00000290,-0.00000095,0.
 00000343,0.00000243|||@


 GOOD SENSE ABOUT TRIVIALITIES IS BETTER THAN NONSENSE
 ABOUT THINGS THAT MATTER

                                       -- MAX BEERBOHM
 Job cpu time:  0 days  8 hours 33 minutes 24.0 seconds.
 File lengths (MBytes):  RWF=   2732 Int=      0 D2E=      0 Chk=     31 Scr=      1
 Normal termination of Gaussian 09 at Wed Oct 11 22:07:05 2023.
