 Entering Gaussian System, Link 0=g09
 Initial command:
 /apps/software//g09/l1.exe /scratch/nathalia.rosa/83354.cluster.abaxnet/Gau-8725.inp -scrdir=/scratch/nathalia.rosa/83354.cluster.abaxnet/
 Entering Link 1 = /apps/software//g09/l1.exe PID=      8726.
  
 Copyright (c) 1988,1990,1992,1993,1995,1998,2003,2009, Gaussian, Inc.
                  All Rights Reserved.
  
 This is part of the Gaussian(R) 09 program.  It is based on
 the Gaussian(R) 03 system (copyright 2003, Gaussian, Inc.),
 the Gaussian(R) 98 system (copyright 1998, Gaussian, Inc.),
 the Gaussian(R) 94 system (copyright 1995, Gaussian, Inc.),
 the Gaussian 92(TM) system (copyright 1992, Gaussian, Inc.),
 the Gaussian 90(TM) system (copyright 1990, Gaussian, Inc.),
 the Gaussian 88(TM) system (copyright 1988, Gaussian, Inc.),
 the Gaussian 86(TM) system (copyright 1986, Carnegie Mellon
 University), and the Gaussian 82(TM) system (copyright 1983,
 Carnegie Mellon University). Gaussian is a federally registered
 trademark of Gaussian, Inc.
  
 This software contains proprietary and confidential information,
 including trade secrets, belonging to Gaussian, Inc.
  
 This software is provided under written license and may be
 used, copied, transmitted, or stored only in accord with that
 written license.
  
 The following legend is applicable only to US Government
 contracts under FAR:
  
                    RESTRICTED RIGHTS LEGEND
  
 Use, reproduction and disclosure by the US Government is
 subject to restrictions as set forth in subparagraphs (a)
 and (c) of the Commercial Computer Software - Restricted
 Rights clause in FAR 52.227-19.
  
 Gaussian, Inc.
 340 Quinnipiac St., Bldg. 40, Wallingford CT 06492
  
  
 ---------------------------------------------------------------
 Warning -- This program may not be used in any manner that
 competes with the business of Gaussian, Inc. or will provide
 assistance to any competitor of Gaussian, Inc.  The licensee
 of this program is prohibited from giving any competitor of
 Gaussian, Inc. access to this program.  By using this program,
 the user acknowledges that Gaussian, Inc. is engaged in the
 business of creating and licensing software in the field of
 computational chemistry and represents and warrants to the
 licensee that it is not a competitor of Gaussian, Inc. and that
 it will not use this program in any manner prohibited above.
 ---------------------------------------------------------------
  

 Cite this work as:
 Gaussian 09, Revision A.02,
 M. J. Frisch, G. W. Trucks, H. B. Schlegel, G. E. Scuseria, 
 M. A. Robb, J. R. Cheeseman, G. Scalmani, V. Barone, B. Mennucci, 
 G. A. Petersson, H. Nakatsuji, M. Caricato, X. Li, H. P. Hratchian, 
 A. F. Izmaylov, J. Bloino, G. Zheng, J. L. Sonnenberg, M. Hada, 
 M. Ehara, K. Toyota, R. Fukuda, J. Hasegawa, M. Ishida, T. Nakajima, 
 Y. Honda, O. Kitao, H. Nakai, T. Vreven, J. A. Montgomery, Jr., 
 J. E. Peralta, F. Ogliaro, M. Bearpark, J. J. Heyd, E. Brothers, 
 K. N. Kudin, V. N. Staroverov, R. Kobayashi, J. Normand, 
 K. Raghavachari, A. Rendell, J. C. Burant, S. S. Iyengar, J. Tomasi, 
 M. Cossi, N. Rega, J. M. Millam, M. Klene, J. E. Knox, J. B. Cross, 
 V. Bakken, C. Adamo, J. Jaramillo, R. Gomperts, R. E. Stratmann, 
 O. Yazyev, A. J. Austin, R. Cammi, C. Pomelli, J. W. Ochterski, 
 R. L. Martin, K. Morokuma, V. G. Zakrzewski, G. A. Voth, 
 P. Salvador, J. J. Dannenberg, S. Dapprich, A. D. Daniels, 
 O. Farkas, J. B. Foresman, J. V. Ortiz, J. Cioslowski, 
 and D. J. Fox, Gaussian, Inc., Wallingford CT, 2009.
 
 ******************************************
 Gaussian 09:  EM64L-G09RevA.02 11-Jun-2009
                20-Sep-2023 
 ******************************************
 %chk=/home/nathalia.rosa/DPP-SUB/DPP-SUB-9/DPP-SUB-9-TD-DFT.chk
 ----------------------------------------------------------------
 # td=(nstates=10) cam-b3lyp/6-31+g(d,p) nosymm geom=connectivity
 ----------------------------------------------------------------
 1/38=1,57=2/1;
 2/12=2,15=1,17=6,18=5,40=1/2;
 3/5=1,6=6,7=111,11=2,16=1,25=1,30=1,74=-40/1,2,8,3;
 4//1;
 5/5=2,38=5/2;
 8/6=1,10=2,108=10/1;
 9/41=10,42=1/14;
 6/7=2,8=2,9=2,10=2/1;
 99/5=1,9=1/99;
 -------
 Energy:
 -------
 Symbolic Z-matrix:
 Charge =  0 Multiplicity = 1
 N                    -1.35158   1.05356  -2.63549 
 C                     0.06751   1.05398  -2.67242 
 C                    -1.86225   0.7244   -1.3819 
 C                    -0.77074   0.49534  -0.55509 
 C                     0.427     0.68795  -1.31149 
 C                     1.51851   0.4589   -0.48468 
 C                    -0.41124   0.12931   0.80585 
 N                     1.00784   0.12975   0.76891 
 O                     0.72995   1.31709  -3.67236 
 O                    -1.07369  -0.13381   1.80578 
 H                     1.57932  -0.09002   1.57271 
 H                    -1.92305   1.27325  -3.43931 
 C                    -5.59982   0.79239  -1.47279 
 C                    -4.29875   0.93217  -2.0347 
 C                    -5.28255   1.80823  -3.97474 
 H                    -5.09064   1.77672  -5.04917 
 C                    -6.50514   0.98007  -3.61171 
 H                    -6.37189  -0.06043  -3.93687 
 C                    -3.27201   0.67348  -1.13592 
 C                    -5.56699   0.43918  -0.1494 
 H                    -6.41186   0.27155   0.50303 
 S                    -3.94711   0.26367   0.43678 
 C                     3.95501   0.25107   0.16811 
 C                     5.25609   0.39085  -0.39381 
 C                     6.16141   0.20312   1.7451 
 H                     6.0282    1.24363   2.07027 
 C                     4.93882  -0.62502   2.10813 
 H                     4.74692  -0.59349   3.18257 
 C                     5.22325   0.74409  -1.7172 
 H                     6.06811   0.91173  -2.36963 
 C                     2.92827   0.5098   -0.73066 
 S                     3.60336   0.91963  -2.30336 
 O                    -6.74136   1.01425  -2.1965 
 O                    -4.10034   1.27247  -3.3462 
 H                    -5.41421   2.84985  -3.65651 
 H                    -7.40197   1.39147  -4.07989 
 O                     3.75662  -0.08924   1.4796 
 O                     6.39762   0.16896   0.32989 
 H                     5.07046  -1.66664   1.7899 
 H                     7.05824  -0.2083    2.21327 
 
                          Input orientation:                          
 ---------------------------------------------------------------------
 Center     Atomic      Atomic             Coordinates (Angstroms)
 Number     Number       Type             X           Y           Z
 ---------------------------------------------------------------------
      1          7           0       -1.351578    1.053555   -2.635486
      2          6           0        0.067506    1.053979   -2.672422
      3          6           0       -1.862249    0.724395   -1.381900
      4          6           0       -0.770736    0.495342   -0.555088
      5          6           0        0.426997    0.687952   -1.311485
      6          6           0        1.518511    0.458896   -0.484676
      7          6           0       -0.411244    0.129309    0.805848
      8          7           0        1.007840    0.129747    0.768914
      9          8           0        0.729953    1.317093   -3.672361
     10          8           0       -1.073691   -0.133811    1.805784
     11          1           0        1.579319   -0.090018    1.572714
     12          1           0       -1.923053    1.273254   -3.439307
     13          6           0       -5.599824    0.792393   -1.472786
     14          6           0       -4.298749    0.932174   -2.034701
     15          6           0       -5.282547    1.808234   -3.974740
     16          1           0       -5.090641    1.776715   -5.049171
     17          6           0       -6.505136    0.980073   -3.611712
     18          1           0       -6.371893   -0.060429   -3.936869
     19          6           0       -3.272012    0.673480   -1.135919
     20          6           0       -5.566987    0.439181   -0.149396
     21          1           0       -6.411860    0.271547    0.503034
     22         16           0       -3.947107    0.263669    0.436778
     23          6           0        3.955014    0.251073    0.168108
     24          6           0        5.256087    0.390848   -0.393814
     25          6           0        6.161415    0.203124    1.745098
     26          1           0        6.028200    1.243625    2.070269
     27          6           0        4.938817   -0.625020    2.108132
     28          1           0        4.746923   -0.593494    3.182567
     29          6           0        5.223246    0.744093   -1.717195
     30          1           0        6.068115    0.911727   -2.369629
     31          6           0        2.928274    0.509799   -0.730661
     32         16           0        3.603362    0.919626   -2.303356
     33          8           0       -6.741358    1.014251   -2.196504
     34          8           0       -4.100344    1.272467   -3.346195
     35          1           0       -5.414208    2.849850   -3.656506
     36          1           0       -7.401968    1.391472   -4.079889
     37          8           0        3.756616   -0.089242    1.479598
     38          8           0        6.397624    0.168957    0.329890
     39          1           0        5.070462   -1.666640    1.789904
     40          1           0        7.058242   -0.208300    2.213265
 ---------------------------------------------------------------------
                    Distance matrix (angstroms):
                    1          2          3          4          5
     1  N    0.000000
     2  C    1.419565   0.000000
     3  C    1.393057   2.344787   0.000000
     4  C    2.230927   2.344745   1.388339   0.000000
     5  C    2.247215   1.454427   2.290619   1.429615   0.000000
     6  C    3.635521   2.691797   3.507854   2.290620   1.388338
     7  C    3.685273   3.630782   2.691799   1.454428   2.344745
     8  N    4.243844   3.685272   3.635522   2.247215   2.230926
     9  O    2.340370   1.227983   3.509560   3.555943   2.461978
    10  O    4.605642   4.771531   3.394064   2.461977   3.555942
    11  H    5.254223   4.649246   4.608406   3.223809   3.201826
    12  H    1.010435   2.144416   2.130227   3.201828   3.223808
    13  C    4.412218   5.798809   3.739298   4.924480   6.029884
    14  C    3.010231   4.414262   2.530979   3.850578   4.786999
    15  C    4.220860   5.557697   4.426733   5.811553   6.398973
    16  H    4.508817   5.725187   4.997876   6.363983   6.752779
    17  C    5.245720   6.639831   5.156921   6.516230   7.309641
    18  H    5.304538   6.656320   5.242204   6.566451   7.326501
    19  C    2.466014   3.695673   1.431967   2.574001   3.703201
    20  C    4.932319   6.204123   3.914779   4.813706   6.110661
    21  H    6.005689   7.257955   4.945403   5.743865   7.087724
    22  S    4.098719   5.138952   2.804727   3.335686   4.729612
    23  C    6.055083   4.881187   6.038800   4.787002   3.850580
    24  C    7.008959   5.705539   7.194322   6.029886   4.924480
    25  C    8.738296   7.574574   8.627226   7.309649   6.516234
    26  H    8.754506   7.619643   8.628224   7.326524   6.566468
    27  C    8.055346   7.028684   7.762457   6.398980   5.811557
    28  H    8.588028   7.674113   8.139554   6.752791   6.363990
    29  C    6.645851   5.252632   7.093451   6.110662   4.813705
    30  H    7.425809   6.009927   7.993834   7.087723   5.743862
    31  C    4.716054   3.500080   4.839346   3.703203   2.574001
    32  S    4.967865   3.557603   5.546179   4.729608   3.335682
    33  O    5.407770   6.825592   4.955129   6.213843   7.230148
    34  O    2.847586   4.227609   3.027855   4.413671   4.997851
    35  H    4.557864   5.851732   4.723114   6.060061   6.655269
    36  H    6.229583   7.608410   6.197792   7.563102   8.333768
    37  O    6.658344   5.670605   6.357816   4.997860   4.413676
    38  O    8.344226   7.061695   8.453652   7.230152   6.213844
    39  H    8.259911   7.234894   7.989986   6.655280   6.060073
    40  H    9.789164   8.621698   9.662830   8.333774   7.563104
                    6          7          8          9         10
     6  C    0.000000
     7  C    2.344789   0.000000
     8  N    1.393058   1.419565   0.000000
     9  O    3.394063   4.771532   4.605642   0.000000
    10  O    3.509561   1.227982   2.340370   5.947128   0.000000
    11  H    2.130225   2.144418   1.010435   5.496562   2.663588
    12  H    4.608404   4.649249   5.254224   2.663583   5.496565
    13  C    7.194322   5.705543   7.008962   6.721571   5.665047
    14  C    6.038798   4.881189   6.055083   5.302635   5.127051
    15  C    7.762451   7.028684   8.055342   6.040100   7.409485
    16  H    8.139542   7.674109   8.588020   5.998848   8.171683
    17  C    8.627218   7.574573   8.738292   7.243188   7.751812
    18  H    8.628199   7.619626   8.754486   7.239043   7.813731
    19  C    4.839346   3.500082   4.716054   4.781579   3.760047
    20  C    7.093454   5.252637   6.645855   7.268663   4.933635
    21  H    7.993839   6.009935   7.425816   8.338620   5.509766
    22  S    5.546185   3.557610   4.967872   6.314239   3.207598
    23  C    2.530981   4.414266   3.010236   5.127048   5.302640
    24  C    3.739300   5.798813   4.412223   5.665041   6.721576
    25  C    5.156924   6.639841   5.245727   7.751811   7.243201
    26  H    5.242217   6.656343   5.304551   7.813745   7.239070
    27  C    4.426739   5.557707   4.220872   7.409483   6.040112
    28  H    4.997884   5.725201   4.508829   8.171685   5.998865
    29  C    3.914780   6.204126   4.932323   4.933628   7.268666
    30  H    4.945402   7.257956   6.005691   5.509756   8.338622
    31  C    1.431968   3.695675   2.466015   3.760045   4.781580
    32  S    2.804723   5.138950   4.098718   3.207590   6.314237
    33  O    8.453651   7.061698   8.344227   7.621703   7.032695
    34  O    6.357808   5.670602   6.658339   4.841502   6.138496
    35  H    7.989979   7.234887   8.259903   6.332481   7.588078
    36  H    9.662826   8.621700   9.789163   8.142466   8.775803
    37  O    3.027861   4.227619   2.847595   6.138497   4.841513
    38  O    4.955131   6.825598   5.407777   7.032690   7.621711
    39  H    4.723132   5.851743   4.557886   7.588084   6.332490
    40  H    6.197794   7.608418   6.229590   8.775800   8.142477
                   11         12         13         14         15
    11  H    0.000000
    12  H    6.264621   0.000000
    13  C    7.848173   4.197270   0.000000
    14  C    6.972087   2.780860   1.424108   0.000000
    15  C    9.025675   3.443703   2.718892   2.345014   0.000000
    16  H    9.582402   3.588697   3.744154   3.229144   1.091890
    17  C    9.663425   4.594689   2.330197   2.712453   1.520646
    18  H    9.673580   4.671023   2.719393   2.983526   2.163333
    19  C    5.608479   2.735876   2.355064   1.388856   3.659074
    20  C    7.369898   4.979704   1.370109   2.325047   4.072894
    21  H    8.070557   6.057628   2.198760   3.367754   4.866951
    22  S    5.653037   4.487771   2.580205   2.584330   4.861129
    23  C    2.780861   6.972085   9.709814   8.569765  10.243070
    24  C    4.197271   7.848167  10.916786   9.709811  11.220286
    25  C    4.594698   9.663429  12.207734  11.146005  12.894076
    26  H    4.671050   9.673610  12.164201  11.117268  12.837208
    27  C    3.443708   9.025674  11.220294  10.243073  12.140772
    28  H    3.588709   9.582408  11.430143  10.553281  12.553311
    29  C    4.979703   7.369889  10.825937   9.529143  10.798175
    30  H    6.057627   8.070544  11.702964  10.372293  11.498593
    31  C    2.735872   5.608476   8.564991   7.355867   8.923428
    32  S    4.487767   5.653026   9.241465   7.906686   9.085292
    33  O    9.201091   4.982741   1.369704   2.449338   2.433241
    34  O    7.636138   2.179281   2.447156   1.369372   1.442123
    35  H    9.213956   3.836795   3.006030   2.748087   1.097074
    36  H   10.714954   5.517502   3.225462   3.744825   2.162566
    37  O    2.179287   7.636142   9.850727   8.847739  10.726448
    38  O    4.982744   9.201086  12.148130  10.981174  12.555615
    39  H    3.836794   9.213950  11.425716  10.448136  12.348711
    40  H    5.517508  10.714954  13.221762  12.178963  13.951806
                   16         17         18         19         20
    16  H    0.000000
    17  C    2.168346   0.000000
    18  H    2.500784   1.098237   0.000000
    19  C    4.453996   4.083704   4.241840   0.000000
    20  C    5.101343   3.627716   3.904156   2.508991   0.000000
    21  H    5.902383   4.176343   4.452476   3.564599   1.080545
    22  S    5.804534   4.842212   5.011329   1.759851   1.731593
    23  C   10.553268  11.145996  11.117233   7.355870   9.529150
    24  C   11.430125  12.207720  12.164161   8.564991  10.825941
    25  C   13.238091  13.774635  13.763648   9.874768  11.882771
    26  H   13.213600  13.763680  13.840107   9.853865  11.833106
    27  C   12.553300  12.894068  12.837171   8.923434  10.798188
    28  H   13.044427  13.238095  13.213576   9.195535  10.887843
    29  C   10.887821  11.882753  11.833066   8.515414  10.907800
    30  H   11.508518  12.634638  12.575974   9.424265  11.854465
    31  C    9.195521   9.874758   9.853834   6.215671   8.515416
    32  S    9.157499  10.192997  10.155520   6.978128   9.432162
    33  O    3.382887   1.435194   2.078536   3.643807   2.429095
    34  O    2.033490   2.437010   2.699156   2.435208   3.614544
    35  H    1.787688   2.165224   3.076603   3.959665   4.258461
    36  H    2.535774   1.092129   1.785924   5.122403   4.441035
    37  O   11.152604  11.505148  11.485889   7.538188   9.479579
    38  O   12.786689  13.515745  13.465453   9.793110  11.977256
    39  H   12.723115  13.045191  12.895865   9.145134  11.015929
    40  H   14.292607  14.809045  14.772087  10.895353  12.860708
                   21         22         23         24         25
    21  H    0.000000
    22  S    2.465656   0.000000
    23  C   10.372303   7.906697   0.000000
    24  C   11.702972   9.241474   1.424108   0.000000
    25  C   12.634661  10.193016   2.712453   2.330194   0.000000
    26  H   12.576019  10.155558   2.983534   2.719392   1.098237
    27  C   11.498610   9.085309   2.345016   2.718893   1.520645
    28  H   11.508546   9.157524   3.229145   3.744153   2.168342
    29  C   11.854468   9.432167   2.325048   1.370109   3.627710
    30  H   12.822316  10.421160   3.367754   2.198761   4.176338
    31  C    9.424270   6.978134   1.388856   2.355064   4.083703
    32  S   10.421157   8.059044   2.584329   2.580205   4.842209
    33  O    2.819164   3.912210  10.981175  12.148128  13.515758
    34  O    4.600164   3.918168   8.847732   9.850716  11.505149
    35  H    4.994470   5.059218  10.448140  11.425719  13.045211
    36  H    4.820553   5.797265  12.178958  13.221753  14.809051
    37  O   10.221631   7.781990   1.369373   2.447156   2.437012
    38  O   12.811065  10.345717   2.449339   1.369704   1.435192
    39  H   11.715644   9.320600   2.748103   3.006050   2.165226
    40  H   13.586714  11.157794   3.744825   3.225461   1.092130
                   26         27         28         29         30
    26  H    0.000000
    27  C    2.163336   0.000000
    28  H    2.500777   1.091892   0.000000
    29  C    3.904147   4.072898   5.101342   0.000000
    30  H    4.452465   4.866955   5.902382   1.080544   0.000000
    31  C    4.241845   3.659077   4.453997   2.508992   3.564599
    32  S    5.011328   4.861131   5.804534   1.731595   2.465656
    33  O   13.465496  12.555620  12.786706  11.977248  12.811053
    34  O   11.485918  10.726443  11.152609   9.479565  10.221613
    35  H   12.895915  12.348721  12.723133  11.015923  11.715635
    36  H   14.772126  13.951803  14.292617  12.860694  13.586695
    37  O    2.699170   1.442121   2.033490   3.614545   4.600165
    38  O    2.078534   2.433241   3.382885   2.429095   2.819164
    39  H    3.076607   1.097074   1.787688   4.258488   4.994497
    40  H    1.785923   2.162561   2.535767   4.441034   4.820553
                   31         32         33         34         35
    31  C    0.000000
    32  S    1.759850   0.000000
    33  O    9.793107  10.345705   0.000000
    34  O    7.538180   7.781973   2.891958   0.000000
    35  H    9.145131   9.320587   2.694876   2.076215   0.000000
    36  H   10.895346  11.157777   2.031216   3.384256   2.501461
    37  O    2.435210   3.918168  11.177606   9.320641  10.914295
    38  O    3.643807   3.912210  13.406343  11.177597  12.751389
    39  H    3.959685   5.059242  12.751381  10.914282  12.648730
    40  H    5.122402   5.797265  14.538557  12.554454  14.119791
                   36         37         38         39         40
    36  H    0.000000
    37  O   12.554458   0.000000
    38  O   14.538550   2.891958   0.000000
    39  H   14.119774   2.076214   2.694887   0.000000
    40  H   15.851206   3.384254   2.031216   2.501451   0.000000
 Symmetry turned off by external request.
 Stoichiometry    C18H12N2O6S2
 Framework group  C1[X(C18H12N2O6S2)]
 Deg. of freedom   114
 Full point group                 C1      NOp   1
 Rotational constants (GHZ):      0.4441311      0.0698267      0.0605512
 Standard basis: 6-31+G(d,p) (6D, 7F)
 Integral buffers will be    131072 words long.
 Raffenetti 2 integral format.
 Two-electron integral symmetry is turned off.
   600 basis functions,  1028 primitive gaussians,   600 cartesian basis functions
   107 alpha electrons      107 beta electrons
       nuclear repulsion energy      2837.4392607812 Hartrees.
 NAtoms=   40 NActive=   40 NUniq=   40 SFac= 7.50D-01 NAtFMM=   80 NAOKFM=F Big=F
 One-electron integrals computed using PRISM.
 NBasis=   600 RedAO= T  NBF=   600
 NBsUse=   594 1.00D-06 NBFU=   594
 Harris functional with IExCor=20419 diagonalized for initial guess.
 ExpMin= 4.05D-02 ExpMax= 2.19D+04 ExpMxC= 3.30D+03 IAcc=2 IRadAn=         0 AccDes= 0.00D+00
 HarFok:  IExCor=20419 AccDes= 0.00D+00 IRadAn=         0 IDoV= 1
 ScaDFX=  1.000000  1.000000  1.000000  1.000000
 FoFCou: FMM=F IPFlag=           0 FMFlag=      100000 FMFlg1=           0
         NFxFlg=           0 DoJE=T BraDBF=F KetDBF=T FulRan=T
         Omega=  0.000000  0.000000  1.000000  0.000000  0.000000 ICntrl=     500 IOpCl=  0
         NMat0=    1 NMatS0=    1 NMatT0=    0 NMatD0=    1 NMtDS0=    0 NMtDT0=    0
         I1Cent=           4 NGrid=           0.
 Symmetry not used in FoFCou.
 Requested convergence on RMS density matrix=1.00D-08 within 128 cycles.
 Requested convergence on MAX density matrix=1.00D-06.
 Requested convergence on             energy=1.00D-06.
 No special actions if energy rises.
 FoFJK:  IHMeth= 1 ICntrl=     0 DoSepK=T KAlg= 1 I1Cent= 0 FoldK=F
 FoFJK:  IHMeth= 1 ICntrl=     0 DoSepK=T KAlg= 1 I1Cent= 0 FoldK=F
 FoFJK:  IHMeth= 1 ICntrl=     0 DoSepK=T KAlg= 1 I1Cent= 0 FoldK=F
 FoFJK:  IHMeth= 1 ICntrl=     0 DoSepK=T KAlg= 1 I1Cent= 0 FoldK=F
 FoFJK:  IHMeth= 1 ICntrl=     0 DoSepK=T KAlg= 1 I1Cent= 0 FoldK=F
 FoFJK:  IHMeth= 1 ICntrl=     0 DoSepK=T KAlg= 1 I1Cent= 0 FoldK=F
 FoFJK:  IHMeth= 1 ICntrl=     0 DoSepK=T KAlg= 1 I1Cent= 0 FoldK=F
 FoFJK:  IHMeth= 1 ICntrl=     0 DoSepK=T KAlg= 1 I1Cent= 0 FoldK=F
 FoFJK:  IHMeth= 1 ICntrl=     0 DoSepK=T KAlg= 1 I1Cent= 0 FoldK=F
 FoFJK:  IHMeth= 1 ICntrl=     0 DoSepK=T KAlg= 1 I1Cent= 0 FoldK=F
 FoFJK:  IHMeth= 1 ICntrl=     0 DoSepK=T KAlg= 1 I1Cent= 0 FoldK=F
 FoFJK:  IHMeth= 1 ICntrl=     0 DoSepK=T KAlg= 1 I1Cent= 0 FoldK=F
 FoFJK:  IHMeth= 1 ICntrl=     0 DoSepK=T KAlg= 1 I1Cent= 0 FoldK=F
 FoFJK:  IHMeth= 1 ICntrl=     0 DoSepK=T KAlg= 1 I1Cent= 0 FoldK=F
 FoFJK:  IHMeth= 1 ICntrl=     0 DoSepK=T KAlg= 1 I1Cent= 0 FoldK=F
 FoFJK:  IHMeth= 1 ICntrl=     0 DoSepK=T KAlg= 1 I1Cent= 0 FoldK=F
 SCF Done:  E(RCAM-B3LYP) =  -2049.79944737     A.U. after   16 cycles
             Convg  =    0.9811D-08             -V/T =  2.0069
 ExpMin= 4.05D-02 ExpMax= 2.19D+04 ExpMxC= 3.30D+03 IAcc=3 IRadAn=         5 AccDes= 0.00D+00
 HarFok:  IExCor=  205 AccDes= 0.00D+00 IRadAn=         5 IDoV=-2
 ScaDFX=  1.000000  1.000000  1.000000  1.000000
 Range of M.O.s used for correlation:    37   594
 NBasis=   600 NAE=   107 NBE=   107 NFC=    36 NFV=     0
 NROrb=    558 NOA=    71 NOB=    71 NVA=   487 NVB=   487

 **** Warning!!: The largest alpha MO coefficient is  0.13993287D+03

 Would need an additional 48961000000 words for in-memory AO integral storage.
    40 initial guesses have been made.
 Convergence on wavefunction:    0.001000000000000
 Iteration     1 Dimension    40 NMult    40
 CISAX will form    20 AO SS matrices at one time.
 FoFJK:  IHMeth= 1 ICntrl=     0 DoSepK=T KAlg= 1 I1Cent= 0 FoldK=F
 FoFJK:  IHMeth= 1 ICntrl=     0 DoSepK=T KAlg= 1 I1Cent= 0 FoldK=F
 FoFJK:  IHMeth= 1 ICntrl=     0 DoSepK=T KAlg= 1 I1Cent= 0 FoldK=F
 FoFJK:  IHMeth= 1 ICntrl=     0 DoSepK=T KAlg= 1 I1Cent= 0 FoldK=F
 New state      2 was old state     10
 New state      3 was old state      9
 New state      4 was old state      2
 New state      5 was old state      3
 New state      6 was old state      4
 No map to state      7
 New state      8 was old state      6
 New state      9 was old state      7
 New state     10 was old state      5
 Iteration     2 Dimension    60 NMult    60
 FoFJK:  IHMeth= 1 ICntrl=     0 DoSepK=T KAlg= 1 I1Cent= 0 FoldK=F
 FoFJK:  IHMeth= 1 ICntrl=     0 DoSepK=T KAlg= 1 I1Cent= 0 FoldK=F
 New state      8 was old state     10
 New state      9 was old state      8
 New state     10 was old state      9
 Iteration     3 Dimension    80 NMult    80
 FoFJK:  IHMeth= 1 ICntrl=     0 DoSepK=T KAlg= 1 I1Cent= 0 FoldK=F
 FoFJK:  IHMeth= 1 ICntrl=     0 DoSepK=T KAlg= 1 I1Cent= 0 FoldK=F
 Iteration     4 Dimension   100 NMult   100
 FoFJK:  IHMeth= 1 ICntrl=     0 DoSepK=T KAlg= 1 I1Cent= 0 FoldK=F
 FoFJK:  IHMeth= 1 ICntrl=     0 DoSepK=T KAlg= 1 I1Cent= 0 FoldK=F
 Iteration     5 Dimension   120 NMult   120
 FoFJK:  IHMeth= 1 ICntrl=     0 DoSepK=T KAlg= 1 I1Cent= 0 FoldK=F
 FoFJK:  IHMeth= 1 ICntrl=     0 DoSepK=T KAlg= 1 I1Cent= 0 FoldK=F
 Iteration     6 Dimension   132 NMult   132
 FoFJK:  IHMeth= 1 ICntrl=     0 DoSepK=T KAlg= 1 I1Cent= 0 FoldK=F
 FoFJK:  IHMeth= 1 ICntrl=     0 DoSepK=T KAlg= 1 I1Cent= 0 FoldK=F
 Iteration     7 Dimension   134 NMult   134
 FoFJK:  IHMeth= 1 ICntrl=     0 DoSepK=T KAlg= 1 I1Cent= 0 FoldK=F
 FoFJK:  IHMeth= 1 ICntrl=     0 DoSepK=T KAlg= 1 I1Cent= 0 FoldK=F
 ***********************************************************************
 Excited states from <AA,BB:AA,BB> singles matrix:
 ***********************************************************************
 
 Ground to excited state transition electric dipole moments (Au):
       state          X           Y           Z        Dip. S.      Osc.
         1         3.1126     -0.3234      1.0525     10.9004      0.7035
         2         0.0000      0.0000      0.0000      0.0000      0.0000
         3         0.0166     -0.0043     -0.0395      0.0019      0.0002
         4         0.0000      0.0000      0.0000      0.0000      0.0000
         5         0.1955     -0.2979      1.0239      1.1753      0.1186
         6         0.0000      0.0000      0.0000      0.0000      0.0000
         7        -0.0004      0.0000      0.0001      0.0000      0.0000
         8        -0.0005      0.0000      0.0001      0.0000      0.0000
         9        -2.0469     -0.0682      0.3822      4.3406      0.4755
        10         0.0000      0.0000      0.0000      0.0000      0.0000
 Ground to excited state transition velocity dipole moments (Au):
       state          X           Y           Z        Dip. S.      Osc.
         1        -0.2923      0.0327     -0.1080      0.0981      0.6758
         2         0.0000      0.0000      0.0000      0.0000      0.0000
         3        -0.0021      0.0069      0.0074      0.0001      0.0005
         4         0.0000      0.0000      0.0000      0.0000      0.0000
         5        -0.0319      0.0444     -0.1517      0.0260      0.1145
         6         0.0000      0.0000      0.0000      0.0000      0.0000
         7         0.0001      0.0000      0.0000      0.0000      0.0000
         8         0.0001      0.0000      0.0000      0.0000      0.0000
         9         0.3167      0.0112     -0.0614      0.1042      0.4228
        10         0.0000      0.0000      0.0000      0.0000      0.0000
 Ground to excited state transition magnetic dipole moments (Au):
       state          X           Y           Z
         1        -0.0630      0.4804      0.3161
         2        -0.0013      0.3445      0.0891
         3         0.0204      0.0060      0.0001
         4        -0.0184     -1.1094     -0.2855
         5        -0.0912      0.0069      0.0212
         6        -0.0013     -1.5125     -0.4196
         7        -0.3423     -0.0487      0.7236
         8        -0.0605     -0.8177     -0.1175
         9        -0.0488     -0.5783     -0.3579
        10        -0.0395      0.0998      0.0530
 <0|del|b> * <b|rxdel|0> + <0|del|b> * <b|delr+rdel|0>
 Rotatory Strengths (R) in cgs (10**-40 erg-esu-cm/Gauss)
       state          XX          YY          ZZ    R(velocity)
         1        -0.0099     -0.0015      0.0033     -0.0027
 Total R(velocity) tensor for State=          1
                 1             2             3 
      1  -0.989316D-02 -0.482504D-02  0.253208D-01
      2   0.838483D-03 -0.151347D-02 -0.272831D-02
      3  -0.117611D-02  0.397681D-03  0.330436D-02
         2        -0.0002      0.0002     -0.0013     -0.0004
 Total R(velocity) tensor for State=          2
                 1             2             3 
      1  -0.218419D-03  0.197510D-02  0.268648D-02
      2  -0.226658D-04  0.239987D-03  0.326544D-03
      3   0.236604D-04 -0.989922D-03 -0.134913D-02
         3        -0.0033     -0.0002     -0.0013     -0.0016
 Total R(velocity) tensor for State=          3
                 1             2             3 
      1  -0.327988D-02  0.188102D-02 -0.267368D-02
      2   0.301395D-03 -0.155108D-03  0.229195D-03
      3  -0.511960D-03  0.123338D-02 -0.129100D-02
         4         0.0048      0.0007      0.0027      0.0027
 Total R(velocity) tensor for State=          4
                 1             2             3 
      1   0.478563D-02 -0.498197D-02  0.650759D-02
      2  -0.171968D-03  0.746531D-03 -0.664642D-03
      3   0.100586D-02 -0.277728D-02  0.268115D-02
         5        -0.0105      0.0011     -0.0005     -0.0033
 Total R(velocity) tensor for State=          5
                 1             2             3 
      1  -0.105191D-01 -0.468771D-02  0.836594D-03
      2  -0.615042D-03  0.114364D-02  0.464144D-03
      3   0.162366D-02 -0.486648D-03 -0.483583D-03
         6         0.0202     -0.0003      0.0021      0.0073
 Total R(velocity) tensor for State=          6
                 1             2             3 
      1   0.202498D-01  0.269782D-01 -0.167124D-02
      2  -0.539138D-03 -0.310764D-03 -0.360826D-03
      3   0.114452D-02 -0.686730D-03  0.210518D-02
         7        -0.0276     -0.0641     -0.0428     -0.0448
 Total R(velocity) tensor for State=          7
                 1             2             3 
      1  -0.276104D-01  0.203836D-01 -0.968266D-01
      2   0.351044D-04 -0.640889D-01 -0.761245D-03
      3  -0.121618D-01 -0.426024D-02 -0.428327D-01
         8        -0.0051     -0.0120     -0.0100     -0.0090
 Total R(velocity) tensor for State=          8
                 1             2             3 
      1  -0.508008D-02  0.231929D-01 -0.210552D-01
      2   0.205057D-02 -0.119886D-01  0.780095D-02
      3  -0.202288D-02  0.322903D-02 -0.998018D-02
         9         0.0233      0.0645      0.0626      0.0501
 Total R(velocity) tensor for State=          9
                 1             2             3 
      1   0.233293D-01 -0.510811D-01  0.111099D+00
      2  -0.445406D-02  0.644901D-01 -0.112284D-01
      3   0.121887D-01 -0.166723D-02  0.626080D-01
        10         0.0001      0.0000     -0.0001      0.0000
 Total R(velocity) tensor for State=         10
                 1             2             3 
      1   0.916794D-04 -0.384857D-03 -0.150440D-03
      2  -0.527596D-04 -0.145414D-04  0.107709D-03
      3   0.512912D-04  0.101198D-04 -0.104351D-03
 1/2[<0|r|b>*<b|rxdel|0> + (<0|rxdel|b>*<b|r|0>)*]
 Rotatory Strengths (R) in cgs (10**-40 erg-esu-cm/Gauss)
       state          XX          YY          ZZ     R(length)     R(au)
         1       138.7397    109.8725   -235.3098      4.4341      0.0094
         2         0.0000     -0.0004     -0.0003     -0.0002      0.0000
         3        -0.2390      0.0181      0.0022     -0.0729     -0.0002
         4        -0.0001     -0.0006      0.0013      0.0002      0.0000
         5        12.6113      1.4569    -15.3511     -0.4276     -0.0009
         6         0.0000      0.0108      0.0038      0.0049      0.0000
         7        -0.0893     -0.0005     -0.0414     -0.0437     -0.0001
         8        -0.0221     -0.0122      0.0071     -0.0090      0.0000
         9       -70.6213    -27.8877     96.7254     -0.5945     -0.0013
        10         0.0000     -0.0001      0.0002      0.0000      0.0000
  1/2[<0|del|b>*<b|r|0> + (<0|r|b>*<b|del|0>)*] (Au)
       state          X           Y           Z        Dip. S.   Osc.(frdel)
         1        -0.9097     -0.0106     -0.1136      1.0339      0.6893
         2         0.0000      0.0000      0.0000      0.0000      0.0000
         3         0.0000      0.0000     -0.0003      0.0004      0.0002
         4         0.0000      0.0000      0.0000      0.0000      0.0000
         5        -0.0062     -0.0132     -0.1553      0.1748      0.1165
         6         0.0000      0.0000      0.0000      0.0000      0.0000
         7         0.0000      0.0000      0.0000      0.0000      0.0000
         8         0.0000      0.0000      0.0000      0.0000      0.0000
         9        -0.6483     -0.0008     -0.0235      0.6726      0.4484
        10         0.0000      0.0000      0.0000      0.0000      0.0000
 Ground to excited state transition densities written to RWF  633

 Excitation energies and oscillator strengths:
 
 Excited state symmetry could not be determined.
 Excited State   1:      Singlet-?Sym    2.6345 eV  470.62 nm  f=0.7035  <S**2>=0.000
     107 ->108         0.70316
 This state for optimization and/or second-order correction.
 Copying the excited state density for this state as the 1-particle RhoCI density.
 
 Excited state symmetry could not be determined.
 Excited State   2:      Singlet-?Sym    3.9102 eV  317.08 nm  f=0.0000  <S**2>=0.000
     101 ->108         0.56528
     101 ->116        -0.11526
     104 ->108         0.23027
     105 ->108         0.27040
     107 ->109         0.16250
 
 Excited state symmetry could not be determined.
 Excited State   3:      Singlet-?Sym    4.0025 eV  309.77 nm  f=0.0002  <S**2>=0.000
     100 ->109         0.11661
     102 ->108         0.66419
     102 ->116        -0.14243
 
 Excited state symmetry could not be determined.
 Excited State   4:      Singlet-?Sym    4.0356 eV  307.22 nm  f=0.0000  <S**2>=0.000
     101 ->108        -0.21922
     105 ->108         0.11492
     107 ->109         0.64260
 
 Excited state symmetry could not be determined.
 Excited State   5:      Singlet-?Sym    4.1184 eV  301.05 nm  f=0.1186  <S**2>=0.000
     105 ->109        -0.20595
     106 ->108         0.66504
 
 Excited state symmetry could not be determined.
 Excited State   6:      Singlet-?Sym    4.1398 eV  299.49 nm  f=0.0000  <S**2>=0.000
     101 ->108        -0.18803
     104 ->108        -0.14445
     105 ->108         0.59717
     106 ->109        -0.19177
     107 ->109        -0.20042
 
 Excited state symmetry could not be determined.
 Excited State   7:      Singlet-?Sym    4.4231 eV  280.31 nm  f=0.0000  <S**2>=0.000
     100 ->108         0.63126
     100 ->116        -0.14344
     102 ->109         0.18510
     102 ->123         0.11754
 
 Excited state symmetry could not be determined.
 Excited State   8:      Singlet-?Sym    4.4657 eV  277.63 nm  f=0.0000  <S**2>=0.000
     101 ->108        -0.26356
     103 ->109        -0.13895
     104 ->108         0.61766
 
 Excited state symmetry could not be determined.
 Excited State   9:      Singlet-?Sym    4.4715 eV  277.28 nm  f=0.4755  <S**2>=0.000
     103 ->108         0.67612
     104 ->109        -0.15855
 
 Excited state symmetry could not be determined.
 Excited State  10:      Singlet-?Sym    4.8365 eV  256.35 nm  f=0.0000  <S**2>=0.000
     107 ->110         0.40465
     107 ->112        -0.38843
     107 ->114        -0.31939
     107 ->118         0.12213
     107 ->121         0.17529
 SavETr:  write IOETrn=   770 NScale= 10 NData=  16 NLR=1 LETran=     190.

 **********************************************************************

            Population analysis using the SCF density.

 **********************************************************************

 Alpha  occ. eigenvalues --  -88.99900 -88.99900 -19.29277 -19.29277 -19.27961
 Alpha  occ. eigenvalues --  -19.27961 -19.19789 -19.19789 -14.45051 -14.45051
 Alpha  occ. eigenvalues --  -10.37280 -10.37280 -10.35331 -10.35331 -10.35152
 Alpha  occ. eigenvalues --  -10.35152 -10.34799 -10.34799 -10.34536 -10.34535
 Alpha  occ. eigenvalues --  -10.34419 -10.34418 -10.31710 -10.31710 -10.30457
 Alpha  occ. eigenvalues --  -10.30457 -10.26107 -10.26063  -8.05719  -8.05719
 Alpha  occ. eigenvalues --   -6.02283  -6.02282  -6.01886  -6.01886  -6.01456
 Alpha  occ. eigenvalues --   -6.01455  -1.19622  -1.19622  -1.15922  -1.15920
 Alpha  occ. eigenvalues --   -1.12256  -1.11641  -1.05296  -1.03990  -0.98281
 Alpha  occ. eigenvalues --   -0.98207  -0.88820  -0.88212  -0.87717  -0.86571
 Alpha  occ. eigenvalues --   -0.85858  -0.81230  -0.80800  -0.79899  -0.77880
 Alpha  occ. eigenvalues --   -0.74917  -0.74104  -0.73297  -0.69871  -0.67466
 Alpha  occ. eigenvalues --   -0.64438  -0.64298  -0.63892  -0.63514  -0.63043
 Alpha  occ. eigenvalues --   -0.61224  -0.60409  -0.59920  -0.58066  -0.57975
 Alpha  occ. eigenvalues --   -0.55048  -0.54245  -0.54243  -0.53577  -0.53536
 Alpha  occ. eigenvalues --   -0.53163  -0.52155  -0.51942  -0.51439  -0.50199
 Alpha  occ. eigenvalues --   -0.49888  -0.49722  -0.49406  -0.49294  -0.48724
 Alpha  occ. eigenvalues --   -0.48316  -0.47618  -0.47144  -0.45274  -0.43236
 Alpha  occ. eigenvalues --   -0.42664  -0.42468  -0.42320  -0.42234  -0.41546
 Alpha  occ. eigenvalues --   -0.39925  -0.39883  -0.38869  -0.38759  -0.33421
 Alpha  occ. eigenvalues --   -0.31876  -0.31760  -0.30792  -0.30084  -0.28959
 Alpha  occ. eigenvalues --   -0.28952  -0.22848
 Alpha virt. eigenvalues --   -0.06003  -0.00023   0.02152   0.02160   0.03642
 Alpha virt. eigenvalues --    0.03741   0.03797   0.04080   0.04209   0.04404
 Alpha virt. eigenvalues --    0.04442   0.05162   0.05189   0.06028   0.06254
 Alpha virt. eigenvalues --    0.06698   0.07347   0.07426   0.07919   0.08010
 Alpha virt. eigenvalues --    0.08124   0.08609   0.08718   0.08894   0.09040
 Alpha virt. eigenvalues --    0.09724   0.10065   0.10155   0.10419   0.10993
 Alpha virt. eigenvalues --    0.11106   0.11491   0.12088   0.12246   0.12615
 Alpha virt. eigenvalues --    0.12701   0.13199   0.13627   0.14053   0.14170
 Alpha virt. eigenvalues --    0.14352   0.14698   0.15050   0.15549   0.16363
 Alpha virt. eigenvalues --    0.16564   0.16842   0.16983   0.17537   0.17571
 Alpha virt. eigenvalues --    0.17821   0.17957   0.18014   0.18475   0.18631
 Alpha virt. eigenvalues --    0.19634   0.19722   0.19912   0.19971   0.20061
 Alpha virt. eigenvalues --    0.20575   0.20758   0.21394   0.21419   0.21600
 Alpha virt. eigenvalues --    0.21914   0.21916   0.22609   0.23011   0.23156
 Alpha virt. eigenvalues --    0.23367   0.23684   0.23710   0.24217   0.24415
 Alpha virt. eigenvalues --    0.24774   0.25168   0.25223   0.25632   0.25804
 Alpha virt. eigenvalues --    0.26031   0.26163   0.26407   0.26566   0.26690
 Alpha virt. eigenvalues --    0.27117   0.27307   0.27776   0.28481   0.28669
 Alpha virt. eigenvalues --    0.29114   0.29168   0.29838   0.30184   0.30231
 Alpha virt. eigenvalues --    0.30599   0.30650   0.30968   0.31396   0.31430
 Alpha virt. eigenvalues --    0.31962   0.32386   0.32717   0.32837   0.33280
 Alpha virt. eigenvalues --    0.33858   0.34482   0.34566   0.34593   0.34677
 Alpha virt. eigenvalues --    0.35367   0.35398   0.35921   0.35937   0.36139
 Alpha virt. eigenvalues --    0.36284   0.36357   0.36637   0.36880   0.37610
 Alpha virt. eigenvalues --    0.38258   0.38389   0.38435   0.38602   0.39236
 Alpha virt. eigenvalues --    0.39389   0.39800   0.39878   0.40481   0.40791
 Alpha virt. eigenvalues --    0.41011   0.41537   0.41727   0.43084   0.43262
 Alpha virt. eigenvalues --    0.43588   0.43616   0.44468   0.45209   0.45252
 Alpha virt. eigenvalues --    0.45754   0.48374   0.48435   0.49529   0.50719
 Alpha virt. eigenvalues --    0.50865   0.51373   0.52025   0.52812   0.54092
 Alpha virt. eigenvalues --    0.55616   0.55979   0.57907   0.58672   0.59339
 Alpha virt. eigenvalues --    0.59589   0.61275   0.61651   0.62585   0.64104
 Alpha virt. eigenvalues --    0.65150   0.65744   0.66091   0.66118   0.68016
 Alpha virt. eigenvalues --    0.70743   0.71042   0.71486   0.71926   0.71969
 Alpha virt. eigenvalues --    0.72199   0.72206   0.72801   0.72846   0.73281
 Alpha virt. eigenvalues --    0.74446   0.75015   0.76273   0.76905   0.77297
 Alpha virt. eigenvalues --    0.77425   0.78138   0.78282   0.79579   0.80716
 Alpha virt. eigenvalues --    0.81528   0.81639   0.82505   0.83143   0.84846
 Alpha virt. eigenvalues --    0.85131   0.86045   0.86496   0.87109   0.87863
 Alpha virt. eigenvalues --    0.88035   0.88497   0.89073   0.90132   0.90484
 Alpha virt. eigenvalues --    0.91636   0.92615   0.92737   0.93712   0.94958
 Alpha virt. eigenvalues --    0.96343   0.96509   0.97639   0.97924   0.98550
 Alpha virt. eigenvalues --    0.99550   1.00053   1.01415   1.01652   1.02073
 Alpha virt. eigenvalues --    1.03540   1.04916   1.05397   1.06082   1.07369
 Alpha virt. eigenvalues --    1.07843   1.08907   1.10724   1.11227   1.11329
 Alpha virt. eigenvalues --    1.12418   1.12799   1.12829   1.14218   1.16047
 Alpha virt. eigenvalues --    1.16605   1.17840   1.18146   1.19719   1.19828
 Alpha virt. eigenvalues --    1.20787   1.22674   1.23632   1.24269   1.24606
 Alpha virt. eigenvalues --    1.25439   1.26158   1.26216   1.26624   1.27171
 Alpha virt. eigenvalues --    1.27417   1.27491   1.28592   1.29897   1.30131
 Alpha virt. eigenvalues --    1.31155   1.31172   1.32962   1.33490   1.33746
 Alpha virt. eigenvalues --    1.34100   1.34431   1.34984   1.35496   1.35592
 Alpha virt. eigenvalues --    1.36542   1.37093   1.38448   1.38828   1.38892
 Alpha virt. eigenvalues --    1.39171   1.39929   1.41382   1.42024   1.42506
 Alpha virt. eigenvalues --    1.43121   1.43195   1.45406   1.45687   1.45713
 Alpha virt. eigenvalues --    1.46194   1.46671   1.48079   1.49085   1.49152
 Alpha virt. eigenvalues --    1.49202   1.49766   1.50651   1.50737   1.51739
 Alpha virt. eigenvalues --    1.53384   1.55391   1.55439   1.57693   1.58194
 Alpha virt. eigenvalues --    1.58576   1.59896   1.61125   1.61271   1.64260
 Alpha virt. eigenvalues --    1.64333   1.68102   1.68311   1.70255   1.72940
 Alpha virt. eigenvalues --    1.73076   1.73677   1.74004   1.75384   1.76530
 Alpha virt. eigenvalues --    1.78658   1.79235   1.80804   1.81475   1.82551
 Alpha virt. eigenvalues --    1.83456   1.83531   1.85867   1.86082   1.87585
 Alpha virt. eigenvalues --    1.88308   1.89191   1.89881   1.90120   1.90445
 Alpha virt. eigenvalues --    1.91727   1.91786   1.94340   1.94612   1.95306
 Alpha virt. eigenvalues --    1.95483   1.95844   1.96366   1.96563   1.97487
 Alpha virt. eigenvalues --    1.98865   1.99259   2.00278   2.00440   2.02293
 Alpha virt. eigenvalues --    2.03520   2.03845   2.04444   2.05038   2.05211
 Alpha virt. eigenvalues --    2.07389   2.07703   2.09041   2.09316   2.10802
 Alpha virt. eigenvalues --    2.11643   2.11686   2.12952   2.13928   2.14596
 Alpha virt. eigenvalues --    2.15858   2.16187   2.16509   2.19966   2.20625
 Alpha virt. eigenvalues --    2.21047   2.21289   2.21966   2.22397   2.23358
 Alpha virt. eigenvalues --    2.23430   2.25689   2.25871   2.26041   2.26960
 Alpha virt. eigenvalues --    2.30400   2.31549   2.31811   2.33875   2.34873
 Alpha virt. eigenvalues --    2.37657   2.38449   2.39435   2.39822   2.39958
 Alpha virt. eigenvalues --    2.41140   2.43906   2.46798   2.47178   2.48262
 Alpha virt. eigenvalues --    2.48793   2.49293   2.50458   2.50992   2.51334
 Alpha virt. eigenvalues --    2.52023   2.52369   2.52441   2.55333   2.55495
 Alpha virt. eigenvalues --    2.58541   2.58557   2.59414   2.59950   2.62101
 Alpha virt. eigenvalues --    2.62881   2.63526   2.64943   2.66266   2.67027
 Alpha virt. eigenvalues --    2.68087   2.68953   2.69620   2.70483   2.73252
 Alpha virt. eigenvalues --    2.73812   2.75587   2.76835   2.78184   2.78238
 Alpha virt. eigenvalues --    2.79788   2.80032   2.80263   2.83341   2.84901
 Alpha virt. eigenvalues --    2.85409   2.85883   2.86266   2.86733   2.88875
 Alpha virt. eigenvalues --    2.89354   2.92777   2.93363   2.94572   2.94775
 Alpha virt. eigenvalues --    2.98185   2.99626   2.99636   3.00700   3.03357
 Alpha virt. eigenvalues --    3.03621   3.08922   3.10423   3.11881   3.13514
 Alpha virt. eigenvalues --    3.15072   3.15627   3.17239   3.21328   3.26725
 Alpha virt. eigenvalues --    3.28161   3.30809   3.34276   3.36063   3.36879
 Alpha virt. eigenvalues --    3.36982   3.37671   3.38445   3.38542   3.45466
 Alpha virt. eigenvalues --    3.53114   3.53124   3.54869   3.54881   3.55451
 Alpha virt. eigenvalues --    3.58838   3.58932   3.68526   3.70200   4.05374
 Alpha virt. eigenvalues --    4.05822   4.31369   4.33655   4.35607   4.37418
 Alpha virt. eigenvalues --    4.38127   4.42975   4.46015   4.46783   4.49297
 Alpha virt. eigenvalues --    4.50766   4.55282   4.59319   4.60866   4.61615
 Alpha virt. eigenvalues --    4.61774   4.68254   4.68512   4.71603   4.79005
 Alpha virt. eigenvalues --    4.79956   4.82394   4.91032   4.96267   5.02752
 Alpha virt. eigenvalues --    5.15690   5.21009
          Condensed to atoms (all electrons):
              1          2          3          4          5          6
     1  N    7.451478   0.668716  -0.002040   0.037375  -0.792045  -0.018589
     2  C    0.668716  11.009569  -0.402110  -0.523859  -4.841008  -0.540509
     3  C   -0.002040  -0.402110  10.836641   1.642413  -3.412934  -1.105616
     4  C    0.037375  -0.523859   1.642413  16.382635  -3.879571  -3.412920
     5  C   -0.792045  -4.841008  -3.412934  -3.879571  16.382533   1.642363
     6  C   -0.018589  -0.540509  -1.105616  -3.412920   1.642363  10.836531
     7  C    0.106719   1.545446  -0.540545  -4.841044  -0.523822  -0.402087
     8  N    0.007010   0.106720  -0.018593  -0.792058   0.037379  -0.002019
     9  O   -0.089075   0.177624   0.004319  -0.102718   0.113073   0.058761
    10  O   -0.006100  -0.019610   0.058763   0.113080  -0.102720   0.004318
    11  H    0.000275   0.013153  -0.007977  -0.040425   0.067297  -0.042490
    12  H    0.316426  -0.021873  -0.042491   0.067297  -0.040423  -0.007977
    13  C    0.070434   0.097838  -0.929931  -0.147379  -0.021145  -0.041232
    14  C    0.103927  -0.344158  -2.010836  -0.207014   1.512182   0.270556
    15  C   -0.009451  -0.024029  -0.077154   0.022461   0.022803   0.003609
    16  H   -0.000639  -0.000402   0.007453   0.000702  -0.001476  -0.000027
    17  C   -0.003739  -0.002445   0.056431  -0.010887   0.002725   0.000023
    18  H    0.000776  -0.000394  -0.010356   0.001302   0.000560   0.000003
    19  C   -0.372318  -0.801162   1.866595   0.243659   0.522880  -0.173824
    20  C    0.015402   0.030157  -0.478849   0.219267  -0.044777   0.017050
    21  H    0.000194  -0.000162  -0.003637   0.001638   0.001005   0.000052
    22  S    0.007684   0.079178  -0.032583  -0.138686  -0.066348  -0.064415
    23  C    0.052561   0.149206   0.270547   1.512136  -0.206993  -2.010726
    24  C   -0.000372   0.009520  -0.041233  -0.021168  -0.147370  -0.929908
    25  C    0.000003  -0.003369   0.000023   0.002728  -0.010888   0.056434
    26  H    0.000000   0.000036   0.000003   0.000560   0.001302  -0.010355
    27  C    0.000374   0.000734   0.003608   0.022798   0.022462  -0.077150
    28  H    0.000000   0.000098  -0.000027  -0.001476   0.000702   0.007453
    29  C    0.002778   0.184879   0.017050  -0.044772   0.219269  -0.478868
    30  H    0.000004  -0.000157   0.000052   0.001005   0.001638  -0.003637
    31  C   -0.117322  -1.271483  -0.173820   0.522891   0.243657   1.866542
    32  S    0.003958  -0.061200  -0.064416  -0.066350  -0.138683  -0.032580
    33  O    0.001834   0.001408  -0.015091   0.006734  -0.001149   0.000103
    34  O    0.049938  -0.009070  -0.136599   0.011320  -0.006367  -0.003950
    35  H    0.001350   0.000166  -0.016964   0.001607   0.000908   0.000021
    36  H   -0.000069   0.000069  -0.001326   0.000191  -0.000106   0.000000
    37  O   -0.000346   0.002364  -0.003950  -0.006363   0.011317  -0.136602
    38  O    0.000016   0.001600   0.000103  -0.001149   0.006734  -0.015089
    39  H    0.000000  -0.000002   0.000021   0.000908   0.001607  -0.016963
    40  H    0.000000   0.000011   0.000000  -0.000106   0.000191  -0.001326
              7          8          9         10         11         12
     1  N    0.106719   0.007010  -0.089075  -0.006100   0.000275   0.316426
     2  C    1.545446   0.106720   0.177624  -0.019610   0.013153  -0.021873
     3  C   -0.540545  -0.018593   0.004319   0.058763  -0.007977  -0.042491
     4  C   -4.841044  -0.792058  -0.102718   0.113080  -0.040425   0.067297
     5  C   -0.523822   0.037379   0.113073  -0.102720   0.067297  -0.040423
     6  C   -0.402087  -0.002019   0.058761   0.004318  -0.042490  -0.007977
     7  C   11.009554   0.668713  -0.019610   0.177620  -0.021873   0.013153
     8  N    0.668713   7.451478  -0.006100  -0.089077   0.316425   0.000275
     9  O   -0.019610  -0.006100   8.408003   0.000000   0.000001  -0.000584
    10  O    0.177620  -0.089077   0.000000   8.408004  -0.000584   0.000001
    11  H   -0.021873   0.316425   0.000001  -0.000584   0.363018   0.000000
    12  H    0.013153   0.000275  -0.000584   0.000001   0.000000   0.363017
    13  C    0.009519  -0.000372  -0.000084  -0.012500  -0.000030   0.027714
    14  C    0.149221   0.052562   0.006558  -0.011104   0.000057   0.046480
    15  C    0.000733   0.000374   0.000317   0.000052   0.000000  -0.002856
    16  H    0.000098   0.000000  -0.000011   0.000000   0.000000  -0.000167
    17  C   -0.003368   0.000003  -0.000099   0.000034   0.000000  -0.001130
    18  H    0.000036   0.000000   0.000000   0.000000   0.000000   0.000004
    19  C   -1.271488  -0.117323   0.024744   0.001413  -0.001639  -0.060840
    20  C    0.184880   0.002778   0.000323   0.015006   0.000018   0.002870
    21  H   -0.000157   0.000004   0.000000  -0.000013   0.000000   0.000000
    22  S   -0.061194   0.003958  -0.002339  -0.019292   0.000715  -0.005505
    23  C   -0.344152   0.103918  -0.011103   0.006557   0.046480   0.000057
    24  C    0.097844   0.070429  -0.012500  -0.000084   0.027715  -0.000030
    25  C   -0.002446  -0.003737   0.000034  -0.000099  -0.001131   0.000000
    26  H   -0.000394   0.000776   0.000000   0.000000   0.000004   0.000000
    27  C   -0.024027  -0.009454   0.000052   0.000317  -0.002856   0.000000
    28  H   -0.000402  -0.000639   0.000000  -0.000011  -0.000166   0.000000
    29  C    0.030156   0.015401   0.015006   0.000323   0.002870   0.000018
    30  H   -0.000162   0.000194  -0.000013   0.000000   0.000000   0.000000
    31  C   -0.801153  -0.372311   0.001413   0.024744  -0.060841  -0.001639
    32  S    0.079176   0.007683  -0.019292  -0.002339  -0.005505   0.000716
    33  O    0.001600   0.000016   0.000000   0.000005   0.000000  -0.000007
    34  O    0.002364  -0.000346  -0.000938   0.000091   0.000000   0.006151
    35  H   -0.000002   0.000000   0.000003   0.000000   0.000000   0.000072
    36  H    0.000011   0.000000   0.000000   0.000000   0.000000   0.000000
    37  O   -0.009071   0.049941   0.000091  -0.000938   0.006152   0.000000
    38  O    0.001408   0.001834   0.000005   0.000000  -0.000007   0.000000
    39  H    0.000166   0.001350   0.000000   0.000003   0.000072   0.000000
    40  H    0.000069  -0.000069   0.000000   0.000000   0.000000   0.000000
             13         14         15         16         17         18
     1  N    0.070434   0.103927  -0.009451  -0.000639  -0.003739   0.000776
     2  C    0.097838  -0.344158  -0.024029  -0.000402  -0.002445  -0.000394
     3  C   -0.929931  -2.010836  -0.077154   0.007453   0.056431  -0.010356
     4  C   -0.147379  -0.207014   0.022461   0.000702  -0.010887   0.001302
     5  C   -0.021145   1.512182   0.022803  -0.001476   0.002725   0.000560
     6  C   -0.041232   0.270556   0.003609  -0.000027   0.000023   0.000003
     7  C    0.009519   0.149221   0.000733   0.000098  -0.003368   0.000036
     8  N   -0.000372   0.052562   0.000374   0.000000   0.000003   0.000000
     9  O   -0.000084   0.006558   0.000317  -0.000011  -0.000099   0.000000
    10  O   -0.012500  -0.011104   0.000052   0.000000   0.000034   0.000000
    11  H   -0.000030   0.000057   0.000000   0.000000   0.000000   0.000000
    12  H    0.027714   0.046480  -0.002856  -0.000167  -0.001130   0.000004
    13  C   12.017665  -2.267520  -0.087794  -0.028454  -0.107600   0.072132
    14  C   -2.267520  11.165521  -0.041372   0.043675   0.083001  -0.068085
    15  C   -0.087794  -0.041372   5.211343   0.400487   0.228659  -0.021971
    16  H   -0.028454   0.043675   0.400487   0.545948  -0.030572  -0.002081
    17  C   -0.107600   0.083001   0.228659  -0.030572   5.182573   0.400225
    18  H    0.072132  -0.068085  -0.021971  -0.002081   0.400225   0.557904
    19  C   -1.836484  -0.436367  -0.073296   0.006659   0.038599  -0.019692
    20  C   -1.689717  -1.844360   0.061298  -0.005105  -0.171363  -0.012511
    21  H   -0.028629   0.030751   0.000179   0.000000  -0.000620  -0.000003
    22  S    0.239834  -0.233326   0.003976  -0.000370   0.013590  -0.000268
    23  C   -0.001809  -0.048361  -0.000254   0.000000   0.000020   0.000000
    24  C   -0.000042  -0.001809  -0.000004   0.000000  -0.000001   0.000000
    25  C   -0.000001   0.000020   0.000000   0.000000   0.000000   0.000000
    26  H    0.000000   0.000000   0.000000   0.000000   0.000000   0.000000
    27  C   -0.000004  -0.000254  -0.000001   0.000000   0.000000   0.000000
    28  H    0.000000   0.000000   0.000000   0.000000   0.000000   0.000000
    29  C   -0.000024  -0.000682  -0.000015   0.000000   0.000001   0.000000
    30  H    0.000000   0.000000   0.000000   0.000000   0.000000   0.000000
    31  C   -0.002549  -0.033948  -0.000527   0.000000   0.000256  -0.000001
    32  S    0.000634   0.005189  -0.000261  -0.000003   0.000009   0.000000
    33  O    0.165821   0.080413  -0.021878   0.005459   0.070221  -0.042117
    34  O    0.308038  -0.003079   0.030510  -0.066778  -0.049778   0.009109
    35  H    0.053760  -0.063869   0.444815  -0.032819  -0.055000   0.003758
    36  H    0.066332  -0.069378  -0.033939  -0.000067   0.387917  -0.033412
    37  O    0.000002   0.000376   0.000001   0.000000   0.000000   0.000000
    38  O    0.000000  -0.000001   0.000000   0.000000   0.000000   0.000000
    39  H    0.000000   0.000000   0.000000   0.000000   0.000000   0.000000
    40  H    0.000000   0.000000   0.000000   0.000000   0.000000   0.000000
             19         20         21         22         23         24
     1  N   -0.372318   0.015402   0.000194   0.007684   0.052561  -0.000372
     2  C   -0.801162   0.030157  -0.000162   0.079178   0.149206   0.009520
     3  C    1.866595  -0.478849  -0.003637  -0.032583   0.270547  -0.041233
     4  C    0.243659   0.219267   0.001638  -0.138686   1.512136  -0.021168
     5  C    0.522880  -0.044777   0.001005  -0.066348  -0.206993  -0.147370
     6  C   -0.173824   0.017050   0.000052  -0.064415  -2.010726  -0.929908
     7  C   -1.271488   0.184880  -0.000157  -0.061194  -0.344152   0.097844
     8  N   -0.117323   0.002778   0.000004   0.003958   0.103918   0.070429
     9  O    0.024744   0.000323   0.000000  -0.002339  -0.011103  -0.012500
    10  O    0.001413   0.015006  -0.000013  -0.019292   0.006557  -0.000084
    11  H   -0.001639   0.000018   0.000000   0.000715   0.046480   0.027715
    12  H   -0.060840   0.002870   0.000000  -0.005505   0.000057  -0.000030
    13  C   -1.836484  -1.689717  -0.028629   0.239834  -0.001809  -0.000042
    14  C   -0.436367  -1.844360   0.030751  -0.233326  -0.048361  -0.001809
    15  C   -0.073296   0.061298   0.000179   0.003976  -0.000254  -0.000004
    16  H    0.006659  -0.005105   0.000000  -0.000370   0.000000   0.000000
    17  C    0.038599  -0.171363  -0.000620   0.013590   0.000020  -0.000001
    18  H   -0.019692  -0.012511  -0.000003  -0.000268   0.000000   0.000000
    19  C    9.355419  -0.732393   0.004943   0.297938  -0.033949  -0.002549
    20  C   -0.732393  10.870772   0.324231  -0.073895  -0.000682  -0.000024
    21  H    0.004943   0.324231   0.490476   0.005817   0.000000   0.000000
    22  S    0.297938  -0.073895   0.005817  15.723166   0.005189   0.000634
    23  C   -0.033949  -0.000682   0.000000   0.005189  11.165510  -2.267590
    24  C   -0.002549  -0.000024   0.000000   0.000634  -2.267590  12.017630
    25  C    0.000256   0.000001   0.000000   0.000009   0.083053  -0.107645
    26  H   -0.000001   0.000000   0.000000   0.000000  -0.068085   0.072129
    27  C   -0.000527  -0.000015   0.000000  -0.000261  -0.041410  -0.087770
    28  H    0.000000   0.000000   0.000000  -0.000003   0.043675  -0.028454
    29  C   -0.008792   0.000019   0.000000  -0.000177  -1.844419  -1.689635
    30  H    0.000001   0.000000   0.000000   0.000000   0.030750  -0.028627
    31  C    0.265296  -0.008793   0.000001  -0.005986  -0.436310  -1.836446
    32  S   -0.005986  -0.000177   0.000000   0.000048  -0.233326   0.239829
    33  O    0.042831  -0.390512  -0.002371   0.025836  -0.000001   0.000000
    34  O   -0.275140  -0.010407  -0.000490   0.025790   0.000376   0.000002
    35  H   -0.007206  -0.007974  -0.000002   0.000228   0.000000   0.000000
    36  H    0.001309   0.038271  -0.000004  -0.000255   0.000000   0.000000
    37  O    0.000172   0.000001   0.000000  -0.000154  -0.003070   0.308031
    38  O   -0.000021   0.000000   0.000000   0.000001   0.080411   0.165823
    39  H   -0.000004   0.000000   0.000000   0.000001  -0.063869   0.053758
    40  H    0.000000   0.000000   0.000000   0.000000  -0.069381   0.066335
             25         26         27         28         29         30
     1  N    0.000003   0.000000   0.000374   0.000000   0.002778   0.000004
     2  C   -0.003369   0.000036   0.000734   0.000098   0.184879  -0.000157
     3  C    0.000023   0.000003   0.003608  -0.000027   0.017050   0.000052
     4  C    0.002728   0.000560   0.022798  -0.001476  -0.044772   0.001005
     5  C   -0.010888   0.001302   0.022462   0.000702   0.219269   0.001638
     6  C    0.056434  -0.010355  -0.077150   0.007453  -0.478868  -0.003637
     7  C   -0.002446  -0.000394  -0.024027  -0.000402   0.030156  -0.000162
     8  N   -0.003737   0.000776  -0.009454  -0.000639   0.015401   0.000194
     9  O    0.000034   0.000000   0.000052   0.000000   0.015006  -0.000013
    10  O   -0.000099   0.000000   0.000317  -0.000011   0.000323   0.000000
    11  H   -0.001131   0.000004  -0.002856  -0.000166   0.002870   0.000000
    12  H    0.000000   0.000000   0.000000   0.000000   0.000018   0.000000
    13  C   -0.000001   0.000000  -0.000004   0.000000  -0.000024   0.000000
    14  C    0.000020   0.000000  -0.000254   0.000000  -0.000682   0.000000
    15  C    0.000000   0.000000  -0.000001   0.000000  -0.000015   0.000000
    16  H    0.000000   0.000000   0.000000   0.000000   0.000000   0.000000
    17  C    0.000000   0.000000   0.000000   0.000000   0.000001   0.000000
    18  H    0.000000   0.000000   0.000000   0.000000   0.000000   0.000000
    19  C    0.000256  -0.000001  -0.000527   0.000000  -0.008792   0.000001
    20  C    0.000001   0.000000  -0.000015   0.000000   0.000019   0.000000
    21  H    0.000000   0.000000   0.000000   0.000000   0.000000   0.000000
    22  S    0.000009   0.000000  -0.000261  -0.000003  -0.000177   0.000000
    23  C    0.083053  -0.068085  -0.041410   0.043675  -1.844419   0.030750
    24  C   -0.107645   0.072129  -0.087770  -0.028454  -1.689635  -0.028627
    25  C    5.182590   0.400225   0.228651  -0.030573  -0.171384  -0.000620
    26  H    0.400225   0.557904  -0.021972  -0.002081  -0.012507  -0.000003
    27  C    0.228651  -0.021972   5.211347   0.400489   0.061313   0.000179
    28  H   -0.030573  -0.002081   0.400489   0.545950  -0.005106   0.000000
    29  C   -0.171384  -0.012507   0.061313  -0.005106  10.870753   0.324230
    30  H   -0.000620  -0.000003   0.000179   0.000000   0.324230   0.490476
    31  C    0.038600  -0.019689  -0.073289   0.006659  -0.732401   0.004944
    32  S    0.013590  -0.000268   0.003975  -0.000370  -0.073886   0.005817
    33  O    0.000000   0.000000   0.000000   0.000000   0.000000   0.000000
    34  O    0.000000   0.000000   0.000001   0.000000   0.000001   0.000000
    35  H    0.000000   0.000000   0.000000   0.000000   0.000000   0.000000
    36  H    0.000000   0.000000   0.000000   0.000000   0.000000   0.000000
    37  O   -0.049777   0.009109   0.030504  -0.066780  -0.010402  -0.000490
    38  O    0.070222  -0.042118  -0.021879   0.005460  -0.390512  -0.002371
    39  H   -0.055000   0.003758   0.444814  -0.032819  -0.007972  -0.000002
    40  H    0.387915  -0.033412  -0.033937  -0.000067   0.038272  -0.000004
             31         32         33         34         35         36
     1  N   -0.117322   0.003958   0.001834   0.049938   0.001350  -0.000069
     2  C   -1.271483  -0.061200   0.001408  -0.009070   0.000166   0.000069
     3  C   -0.173820  -0.064416  -0.015091  -0.136599  -0.016964  -0.001326
     4  C    0.522891  -0.066350   0.006734   0.011320   0.001607   0.000191
     5  C    0.243657  -0.138683  -0.001149  -0.006367   0.000908  -0.000106
     6  C    1.866542  -0.032580   0.000103  -0.003950   0.000021   0.000000
     7  C   -0.801153   0.079176   0.001600   0.002364  -0.000002   0.000011
     8  N   -0.372311   0.007683   0.000016  -0.000346   0.000000   0.000000
     9  O    0.001413  -0.019292   0.000000  -0.000938   0.000003   0.000000
    10  O    0.024744  -0.002339   0.000005   0.000091   0.000000   0.000000
    11  H   -0.060841  -0.005505   0.000000   0.000000   0.000000   0.000000
    12  H   -0.001639   0.000716  -0.000007   0.006151   0.000072   0.000000
    13  C   -0.002549   0.000634   0.165821   0.308038   0.053760   0.066332
    14  C   -0.033948   0.005189   0.080413  -0.003079  -0.063869  -0.069378
    15  C   -0.000527  -0.000261  -0.021878   0.030510   0.444815  -0.033939
    16  H    0.000000  -0.000003   0.005459  -0.066778  -0.032819  -0.000067
    17  C    0.000256   0.000009   0.070221  -0.049778  -0.055000   0.387917
    18  H   -0.000001   0.000000  -0.042117   0.009109   0.003758  -0.033412
    19  C    0.265296  -0.005986   0.042831  -0.275140  -0.007206   0.001309
    20  C   -0.008793  -0.000177  -0.390512  -0.010407  -0.007974   0.038271
    21  H    0.000001   0.000000  -0.002371  -0.000490  -0.000002  -0.000004
    22  S   -0.005986   0.000048   0.025836   0.025790   0.000228  -0.000255
    23  C   -0.436310  -0.233326  -0.000001   0.000376   0.000000   0.000000
    24  C   -1.836446   0.239829   0.000000   0.000002   0.000000   0.000000
    25  C    0.038600   0.013590   0.000000   0.000000   0.000000   0.000000
    26  H   -0.019689  -0.000268   0.000000   0.000000   0.000000   0.000000
    27  C   -0.073289   0.003975   0.000000   0.000001   0.000000   0.000000
    28  H    0.006659  -0.000370   0.000000   0.000000   0.000000   0.000000
    29  C   -0.732401  -0.073886   0.000000   0.000001   0.000000   0.000000
    30  H    0.004944   0.005817   0.000000   0.000000   0.000000   0.000000
    31  C    9.355346   0.297938  -0.000021   0.000172  -0.000004   0.000000
    32  S    0.297938  15.723171   0.000001  -0.000154   0.000001   0.000000
    33  O   -0.000021   0.000001   8.540558  -0.025826   0.002591  -0.062948
    34  O    0.000172  -0.000154  -0.025826   8.572604  -0.039530   0.005194
    35  H   -0.000004   0.000001   0.002591  -0.039530   0.545094  -0.002053
    36  H    0.000000   0.000000  -0.062948   0.005194  -0.002053   0.547120
    37  O   -0.275143   0.025790   0.000000   0.000000   0.000000   0.000000
    38  O    0.042833   0.025836   0.000000   0.000000   0.000000   0.000000
    39  H   -0.007206   0.000228   0.000000   0.000000   0.000000   0.000000
    40  H    0.001308  -0.000255   0.000000   0.000000   0.000000   0.000000
             37         38         39         40
     1  N   -0.000346   0.000016   0.000000   0.000000
     2  C    0.002364   0.001600  -0.000002   0.000011
     3  C   -0.003950   0.000103   0.000021   0.000000
     4  C   -0.006363  -0.001149   0.000908  -0.000106
     5  C    0.011317   0.006734   0.001607   0.000191
     6  C   -0.136602  -0.015089  -0.016963  -0.001326
     7  C   -0.009071   0.001408   0.000166   0.000069
     8  N    0.049941   0.001834   0.001350  -0.000069
     9  O    0.000091   0.000005   0.000000   0.000000
    10  O   -0.000938   0.000000   0.000003   0.000000
    11  H    0.006152  -0.000007   0.000072   0.000000
    12  H    0.000000   0.000000   0.000000   0.000000
    13  C    0.000002   0.000000   0.000000   0.000000
    14  C    0.000376  -0.000001   0.000000   0.000000
    15  C    0.000001   0.000000   0.000000   0.000000
    16  H    0.000000   0.000000   0.000000   0.000000
    17  C    0.000000   0.000000   0.000000   0.000000
    18  H    0.000000   0.000000   0.000000   0.000000
    19  C    0.000172  -0.000021  -0.000004   0.000000
    20  C    0.000001   0.000000   0.000000   0.000000
    21  H    0.000000   0.000000   0.000000   0.000000
    22  S   -0.000154   0.000001   0.000001   0.000000
    23  C   -0.003070   0.080411  -0.063869  -0.069381
    24  C    0.308031   0.165823   0.053758   0.066335
    25  C   -0.049777   0.070222  -0.055000   0.387915
    26  H    0.009109  -0.042118   0.003758  -0.033412
    27  C    0.030504  -0.021879   0.444814  -0.033937
    28  H   -0.066780   0.005460  -0.032819  -0.000067
    29  C   -0.010402  -0.390512  -0.007972   0.038272
    30  H   -0.000490  -0.002371  -0.000002  -0.000004
    31  C   -0.275143   0.042833  -0.007206   0.001308
    32  S    0.025790   0.025836   0.000228  -0.000255
    33  O    0.000000   0.000000   0.000000   0.000000
    34  O    0.000000   0.000000   0.000000   0.000000
    35  H    0.000000   0.000000   0.000000   0.000000
    36  H    0.000000   0.000000   0.000000   0.000000
    37  O    8.572606  -0.025826  -0.039531   0.005194
    38  O   -0.025826   8.540555   0.002591  -0.062948
    39  H   -0.039531   0.002591   0.545095  -0.002053
    40  H    0.005194  -0.062948  -0.002053   0.547121
 Mulliken atomic charges:
              1
     1  N   -0.487125
     2  C    0.788510
     3  C    0.765056
     4  C   -0.576764
     5  C   -0.576766
     6  C    0.765040
     7  C    0.788509
     8  N   -0.487125
     9  O   -0.545859
    10  O   -0.545859
    11  H    0.341270
    12  H    0.341271
    13  C    0.073577
    14  C    0.135036
    15  C   -0.036814
    16  H    0.158489
    17  C   -0.027688
    18  H    0.165081
    19  C   -0.441714
    20  C   -0.310789
    21  H    0.176797
    22  S    0.271465
    23  C    0.135043
    24  C    0.073583
    25  C   -0.027688
    26  H    0.165081
    27  C   -0.036811
    28  H    0.158488
    29  C   -0.310784
    30  H    0.176797
    31  C   -0.441718
    32  S    0.271462
    33  O   -0.383511
    34  O   -0.393208
    35  H    0.171049
    36  H    0.157143
    37  O   -0.393207
    38  O   -0.383509
    39  H    0.171048
    40  H    0.157142
 Sum of Mulliken atomic charges =   0.00000
 Mulliken charges with hydrogens summed into heavy atoms:
              1
     1  N   -0.145854
     2  C    0.788510
     3  C    0.765056
     4  C   -0.576764
     5  C   -0.576766
     6  C    0.765040
     7  C    0.788509
     8  N   -0.145854
     9  O   -0.545859
    10  O   -0.545859
    13  C    0.073577
    14  C    0.135036
    15  C    0.292724
    17  C    0.294536
    19  C   -0.441714
    20  C   -0.133991
    22  S    0.271465
    23  C    0.135043
    24  C    0.073583
    25  C    0.294535
    27  C    0.292725
    29  C   -0.133987
    31  C   -0.441718
    32  S    0.271462
    33  O   -0.383511
    34  O   -0.393208
    37  O   -0.393207
    38  O   -0.383509
 Sum of Mulliken charges with hydrogens summed into heavy atoms =   0.00000
 Electronic spatial extent (au):  <R**2>=          17093.7532
 Charge=              0.0000 electrons
 Dipole moment (field-independent basis, Debye):
    X=              0.0000    Y=             -0.0001    Z=             -0.0001  Tot=              0.0001
 Quadrupole moment (field-independent basis, Debye-Ang):
   XX=           -121.2119   YY=           -174.1926   ZZ=           -163.7041
   XY=            -10.5063   XZ=             45.0581   YZ=             -4.0009
 Traceless Quadrupole moment (field-independent basis, Debye-Ang):
   XX=             31.8243   YY=            -21.1564   ZZ=            -10.6679
   XY=            -10.5063   XZ=             45.0581   YZ=             -4.0009
 Octapole moment (field-independent basis, Debye-Ang**2):
  XXX=             62.4985  YYY=           -309.1736  ZZZ=            458.3504  XYY=             17.5072
  XXY=            -68.1024  XXZ=             97.6382  XZZ=            -55.9707  YZZ=            -89.3853
  YYZ=            157.8394  XYZ=             37.1493
 Hexadecapole moment (field-independent basis, Debye-Ang**3):
 XXXX=         -16206.9642 YYYY=           -851.9578 ZZZZ=          -4128.1728 XXXY=            368.6729
 XXXZ=           -489.6974 YYYX=            475.0247 YYYZ=            719.1273 ZZZX=           -877.3214
 ZZZY=            652.1868 XXYY=          -3008.2241 XXZZ=          -2462.5645 YYZZ=           -832.1191
 XXYZ=            -82.3815 YYXZ=           -430.2546 ZZXY=            -53.1738
 N-N= 2.837439260781D+03 E-N=-1.048912677038D+04  KE= 2.035818075516D+03
 1\1\GINC-DLT12\SP\RTD-CAM-B3LYP-FC\6-31+G(d,p)\C18H12N2O6S2\NATHALIA.R
 OSA\20-Sep-2023\0\\# td=(nstates=10) cam-b3lyp/6-31+g(d,p) nosymm geom
 =connectivity\\Energy:\\0,1\N,0,-1.351578,1.053555,-2.635486\C,0,0.067
 506,1.053979,-2.672422\C,0,-1.862249,0.724395,-1.3819\C,0,-0.770736,0.
 495342,-0.555088\C,0,0.426997,0.687952,-1.311485\C,0,1.518511,0.458896
 ,-0.484676\C,0,-0.411244,0.129309,0.805848\N,0,1.00784,0.129747,0.7689
 14\O,0,0.729953,1.317093,-3.672361\O,0,-1.073691,-0.133811,1.805784\H,
 0,1.579319,-0.090018,1.572714\H,0,-1.923053,1.273254,-3.439307\C,0,-5.
 599824,0.792393,-1.472786\C,0,-4.298749,0.932174,-2.034701\C,0,-5.2825
 47,1.808234,-3.97474\H,0,-5.090641,1.776715,-5.049171\C,0,-6.505136,0.
 980073,-3.611712\H,0,-6.371893,-0.060429,-3.936869\C,0,-3.272012,0.673
 48,-1.135919\C,0,-5.566987,0.439181,-0.149396\H,0,-6.41186,0.271547,0.
 503034\S,0,-3.947107,0.263669,0.436778\C,0,3.955014,0.251073,0.168108\
 C,0,5.256087,0.390848,-0.393814\C,0,6.161415,0.203124,1.745098\H,0,6.0
 282,1.243625,2.070269\C,0,4.938817,-0.62502,2.108132\H,0,4.746923,-0.5
 93494,3.182567\C,0,5.223246,0.744093,-1.717195\H,0,6.068115,0.911727,-
 2.369629\C,0,2.928274,0.509799,-0.730661\S,0,3.603362,0.919626,-2.3033
 56\O,0,-6.741358,1.014251,-2.196504\O,0,-4.100344,1.272467,-3.346195\H
 ,0,-5.414208,2.84985,-3.656506\H,0,-7.401968,1.391472,-4.079889\O,0,3.
 756616,-0.089242,1.479598\O,0,6.397624,0.168957,0.32989\H,0,5.070462,-
 1.66664,1.789904\H,0,7.058242,-0.2083,2.213265\\Version=EM64L-G09RevA.
 02\HF=-2049.7994474\RMSD=9.811e-09\PG=C01 [X(C18H12N2O6S2)]\\@


 Time has a wonderful way of weeding out the trivial.
                                -- Richard Ben Sapir
 Job cpu time:  0 days  3 hours 49 minutes 10.0 seconds.
 File lengths (MBytes):  RWF=    822 Int=      0 D2E=      0 Chk=    129 Scr=      1
 Normal termination of Gaussian 09 at Wed Sep 20 15:25:29 2023.
