 Entering Link 1 = C:\G09W\l1.exe PID=     14220.
  
 Copyright (c) 1988,1990,1992,1993,1995,1998,2003,2009,2010,
            Gaussian, Inc.  All Rights Reserved.
  
 This is part of the Gaussian(R) 09 program.  It is based on
 the Gaussian(R) 03 system (copyright 2003, Gaussian, Inc.),
 the Gaussian(R) 98 system (copyright 1998, Gaussian, Inc.),
 the Gaussian(R) 94 system (copyright 1995, Gaussian, Inc.),
 the Gaussian 92(TM) system (copyright 1992, Gaussian, Inc.),
 the Gaussian 90(TM) system (copyright 1990, Gaussian, Inc.),
 the Gaussian 88(TM) system (copyright 1988, Gaussian, Inc.),
 the Gaussian 86(TM) system (copyright 1986, Carnegie Mellon
 University), and the Gaussian 82(TM) system (copyright 1983,
 Carnegie Mellon University). Gaussian is a federally registered
 trademark of Gaussian, Inc.
  
 This software contains proprietary and confidential information,
 including trade secrets, belonging to Gaussian, Inc.
  
 This software is provided under written license and may be
 used, copied, transmitted, or stored only in accord with that
 written license.
  
 The following legend is applicable only to US Government
 contracts under FAR:
  
                    RESTRICTED RIGHTS LEGEND
  
 Use, reproduction and disclosure by the US Government is
 subject to restrictions as set forth in subparagraphs (a)
 and (c) of the Commercial Computer Software - Restricted
 Rights clause in FAR 52.227-19.
  
 Gaussian, Inc.
 340 Quinnipiac St., Bldg. 40, Wallingford CT 06492
  
  
 ---------------------------------------------------------------
 Warning -- This program may not be used in any manner that
 competes with the business of Gaussian, Inc. or will provide
 assistance to any competitor of Gaussian, Inc.  The licensee
 of this program is prohibited from giving any competitor of
 Gaussian, Inc. access to this program.  By using this program,
 the user acknowledges that Gaussian, Inc. is engaged in the
 business of creating and licensing software in the field of
 computational chemistry and represents and warrants to the
 licensee that it is not a competitor of Gaussian, Inc. and that
 it will not use this program in any manner prohibited above.
 ---------------------------------------------------------------
  

 Cite this work as:
 Gaussian 09, Revision B.01,
 M. J. Frisch, G. W. Trucks, H. B. Schlegel, G. E. Scuseria, 
 M. A. Robb, J. R. Cheeseman, G. Scalmani, V. Barone, B. Mennucci, 
 G. A. Petersson, H. Nakatsuji, M. Caricato, X. Li, H. P. Hratchian, 
 A. F. Izmaylov, J. Bloino, G. Zheng, J. L. Sonnenberg, M. Hada, 
 M. Ehara, K. Toyota, R. Fukuda, J. Hasegawa, M. Ishida, T. Nakajima, 
 Y. Honda, O. Kitao, H. Nakai, T. Vreven, J. A. Montgomery, Jr., 
 J. E. Peralta, F. Ogliaro, M. Bearpark, J. J. Heyd, E. Brothers, 
 K. N. Kudin, V. N. Staroverov, T. Keith, R. Kobayashi, J. Normand, 
 K. Raghavachari, A. Rendell, J. C. Burant, S. S. Iyengar, J. Tomasi, 
 M. Cossi, N. Rega, J. M. Millam, M. Klene, J. E. Knox, J. B. Cross, 
 V. Bakken, C. Adamo, J. Jaramillo, R. Gomperts, R. E. Stratmann, 
 O. Yazyev, A. J. Austin, R. Cammi, C. Pomelli, J. W. Ochterski, 
 R. L. Martin, K. Morokuma, V. G. Zakrzewski, G. A. Voth, 
 P. Salvador, J. J. Dannenberg, S. Dapprich, A. D. Daniels, 
 O. Farkas, J. B. Foresman, J. V. Ortiz, J. Cioslowski, 
 and D. J. Fox, Gaussian, Inc., Wallingford CT, 2010.
 
 ******************************************
 Gaussian 09:  IA32W-G09RevB.01 12-Aug-2010
                13-Oct-2023 
 ******************************************
 %nprocshared=6
 Will use up to    6 processors via shared memory.
 %chk=G:\Meu Drive\POS-DOC-IME\SUBSTITUINTES-DOADORES\DPP-substituido\DPP-SUB-9\D
 PP-SUB-9-CATION.chk
 -----------------------------------------------------------
 # opt=tight freq b3lyp/6-31+g(d,p) nosymm geom=connectivity
 -----------------------------------------------------------
 1/7=10,14=-1,18=20,19=15,26=3,38=1,57=2/1,3;
 2/9=110,12=2,15=1,17=6,18=5,40=1/2;
 3/5=1,6=6,7=111,11=2,16=1,25=1,30=1,71=1,74=-5/1,2,3;
 4//1;
 5/5=2,38=5/2;
 6/7=2,8=2,9=2,10=2,28=1/1;
 7/30=1/1,2,3,16;
 1/7=10,14=-1,18=20,19=15/3(2);
 2/9=110,15=1/2;
 99//99;
 2/9=110,15=1/2;
 3/5=1,6=6,7=111,11=2,16=1,25=1,30=1,71=1,74=-5/1,2,3;
 4/5=5,16=3/1;
 5/5=2,38=5/2;
 7/30=1/1,2,3,16;
 1/7=10,14=-1,18=20,19=15/3(-5);
 2/9=110,15=1/2;
 6/7=2,8=2,9=2,10=2,19=2,28=1/1;
 99/9=1/99;
 -------
 Energy:
 -------
 Symbolic Z-matrix:
 Charge =  1 Multiplicity = 2
 N                    -1.35158   1.05356  -2.63549 
 C                     0.06751   1.05398  -2.67242 
 C                    -1.86225   0.7244   -1.3819 
 C                    -0.77074   0.49534  -0.55509 
 C                     0.427     0.68795  -1.31149 
 C                     1.51851   0.4589   -0.48468 
 C                    -0.41124   0.12931   0.80585 
 N                     1.00784   0.12975   0.76891 
 O                     0.72995   1.31709  -3.67236 
 O                    -1.07369  -0.13381   1.80578 
 H                     1.57932  -0.09002   1.57271 
 H                    -1.92305   1.27325  -3.43931 
 C                    -5.59982   0.79239  -1.47279 
 C                    -4.29875   0.93217  -2.0347 
 C                    -5.28255   1.80823  -3.97474 
 H                    -5.09064   1.77672  -5.04917 
 C                    -6.50514   0.98007  -3.61171 
 H                    -6.37189  -0.06043  -3.93687 
 C                    -3.27201   0.67348  -1.13592 
 C                    -5.56699   0.43918  -0.1494 
 H                    -6.41186   0.27155   0.50303 
 S                    -3.94711   0.26367   0.43678 
 C                     3.95501   0.25107   0.16811 
 C                     5.25609   0.39085  -0.39381 
 C                     6.16141   0.20312   1.7451 
 H                     6.0282    1.24363   2.07027 
 C                     4.93882  -0.62502   2.10813 
 H                     4.74692  -0.59349   3.18257 
 C                     5.22325   0.74409  -1.7172 
 H                     6.06811   0.91173  -2.36963 
 C                     2.92827   0.5098   -0.73066 
 S                     3.60336   0.91963  -2.30336 
 O                    -6.74136   1.01425  -2.1965 
 O                    -4.10034   1.27247  -3.3462 
 H                    -5.41421   2.84985  -3.65651 
 H                    -7.40197   1.39147  -4.07989 
 O                     3.75662  -0.08924   1.4796 
 O                     6.39762   0.16896   0.32989 
 H                     5.07046  -1.66664   1.7899 
 H                     7.05824  -0.2083    2.21327 
 

 GradGradGradGradGradGradGradGradGradGradGradGradGradGradGradGradGradGrad
 Berny optimization.
 Initialization pass.
                           ----------------------------
                           !    Initial Parameters    !
                           ! (Angstroms and Degrees)  !
 --------------------------                            --------------------------
 ! Name  Definition              Value          Derivative Info.                !
 --------------------------------------------------------------------------------
 ! R1    R(1,2)                  1.4196         estimate D2E/DX2                !
 ! R2    R(1,3)                  1.3931         estimate D2E/DX2                !
 ! R3    R(1,12)                 1.0104         estimate D2E/DX2                !
 ! R4    R(2,5)                  1.4544         estimate D2E/DX2                !
 ! R5    R(2,9)                  1.228          estimate D2E/DX2                !
 ! R6    R(3,4)                  1.3883         estimate D2E/DX2                !
 ! R7    R(3,19)                 1.432          estimate D2E/DX2                !
 ! R8    R(4,5)                  1.4296         estimate D2E/DX2                !
 ! R9    R(4,7)                  1.4544         estimate D2E/DX2                !
 ! R10   R(5,6)                  1.3883         estimate D2E/DX2                !
 ! R11   R(6,8)                  1.3931         estimate D2E/DX2                !
 ! R12   R(6,31)                 1.432          estimate D2E/DX2                !
 ! R13   R(7,8)                  1.4196         estimate D2E/DX2                !
 ! R14   R(7,10)                 1.228          estimate D2E/DX2                !
 ! R15   R(8,11)                 1.0104         estimate D2E/DX2                !
 ! R16   R(13,14)                1.4241         estimate D2E/DX2                !
 ! R17   R(13,20)                1.3701         estimate D2E/DX2                !
 ! R18   R(13,33)                1.3697         estimate D2E/DX2                !
 ! R19   R(14,19)                1.3889         estimate D2E/DX2                !
 ! R20   R(14,34)                1.3694         estimate D2E/DX2                !
 ! R21   R(15,16)                1.0919         estimate D2E/DX2                !
 ! R22   R(15,17)                1.5206         estimate D2E/DX2                !
 ! R23   R(15,34)                1.4421         estimate D2E/DX2                !
 ! R24   R(15,35)                1.0971         estimate D2E/DX2                !
 ! R25   R(17,18)                1.0982         estimate D2E/DX2                !
 ! R26   R(17,33)                1.4352         estimate D2E/DX2                !
 ! R27   R(17,36)                1.0921         estimate D2E/DX2                !
 ! R28   R(19,22)                1.7599         estimate D2E/DX2                !
 ! R29   R(20,21)                1.0805         estimate D2E/DX2                !
 ! R30   R(20,22)                1.7316         estimate D2E/DX2                !
 ! R31   R(23,24)                1.4241         estimate D2E/DX2                !
 ! R32   R(23,31)                1.3889         estimate D2E/DX2                !
 ! R33   R(23,37)                1.3694         estimate D2E/DX2                !
 ! R34   R(24,29)                1.3701         estimate D2E/DX2                !
 ! R35   R(24,38)                1.3697         estimate D2E/DX2                !
 ! R36   R(25,26)                1.0982         estimate D2E/DX2                !
 ! R37   R(25,27)                1.5206         estimate D2E/DX2                !
 ! R38   R(25,38)                1.4352         estimate D2E/DX2                !
 ! R39   R(25,40)                1.0921         estimate D2E/DX2                !
 ! R40   R(27,28)                1.0919         estimate D2E/DX2                !
 ! R41   R(27,37)                1.4421         estimate D2E/DX2                !
 ! R42   R(27,39)                1.0971         estimate D2E/DX2                !
 ! R43   R(29,30)                1.0805         estimate D2E/DX2                !
 ! R44   R(29,32)                1.7316         estimate D2E/DX2                !
 ! R45   R(31,32)                1.7598         estimate D2E/DX2                !
 ! A1    A(2,1,3)              112.951          estimate D2E/DX2                !
 ! A2    A(2,1,12)             122.9985         estimate D2E/DX2                !
 ! A3    A(3,1,12)             124.0502         estimate D2E/DX2                !
 ! A4    A(1,2,5)              102.8656         estimate D2E/DX2                !
 ! A5    A(1,2,9)              124.0923         estimate D2E/DX2                !
 ! A6    A(5,2,9)              133.0421         estimate D2E/DX2                !
 ! A7    A(1,3,4)              106.66           estimate D2E/DX2                !
 ! A8    A(1,3,19)             121.5929         estimate D2E/DX2                !
 ! A9    A(4,3,19)             131.747          estimate D2E/DX2                !
 ! A10   A(3,4,5)              108.745          estimate D2E/DX2                !
 ! A11   A(3,4,7)              142.4767         estimate D2E/DX2                !
 ! A12   A(5,4,7)              108.7783         estimate D2E/DX2                !
 ! A13   A(2,5,4)              108.7784         estimate D2E/DX2                !
 ! A14   A(2,5,6)              142.4765         estimate D2E/DX2                !
 ! A15   A(4,5,6)              108.7451         estimate D2E/DX2                !
 ! A16   A(5,6,8)              106.6599         estimate D2E/DX2                !
 ! A17   A(5,6,31)             131.7471         estimate D2E/DX2                !
 ! A18   A(8,6,31)             121.5929         estimate D2E/DX2                !
 ! A19   A(4,7,8)              102.8655         estimate D2E/DX2                !
 ! A20   A(4,7,10)             133.042          estimate D2E/DX2                !
 ! A21   A(8,7,10)             124.0924         estimate D2E/DX2                !
 ! A22   A(6,8,7)              112.951          estimate D2E/DX2                !
 ! A23   A(6,8,11)             124.0499         estimate D2E/DX2                !
 ! A24   A(7,8,11)             122.9988         estimate D2E/DX2                !
 ! A25   A(14,13,20)           112.6144         estimate D2E/DX2                !
 ! A26   A(14,13,33)           122.482          estimate D2E/DX2                !
 ! A27   A(20,13,33)           124.8961         estimate D2E/DX2                !
 ! A28   A(13,14,19)           113.6892         estimate D2E/DX2                !
 ! A29   A(13,14,34)           122.3207         estimate D2E/DX2                !
 ! A30   A(19,14,34)           123.9841         estimate D2E/DX2                !
 ! A31   A(16,15,17)           111.131          estimate D2E/DX2                !
 ! A32   A(16,15,34)           105.9069         estimate D2E/DX2                !
 ! A33   A(16,15,35)           109.5079         estimate D2E/DX2                !
 ! A34   A(17,15,34)           110.6529         estimate D2E/DX2                !
 ! A35   A(17,15,35)           110.5694         estimate D2E/DX2                !
 ! A36   A(34,15,35)           108.9465         estimate D2E/DX2                !
 ! A37   A(15,17,18)           110.35           estimate D2E/DX2                !
 ! A38   A(15,17,33)           110.7793         estimate D2E/DX2                !
 ! A39   A(15,17,36)           110.6543         estimate D2E/DX2                !
 ! A40   A(18,17,33)           109.5409         estimate D2E/DX2                !
 ! A41   A(18,17,36)           109.2445         estimate D2E/DX2                !
 ! A42   A(33,17,36)           106.1756         estimate D2E/DX2                !
 ! A43   A(3,19,14)            127.5908         estimate D2E/DX2                !
 ! A44   A(3,19,22)            122.6463         estimate D2E/DX2                !
 ! A45   A(14,19,22)           109.7613         estimate D2E/DX2                !
 ! A46   A(13,20,21)           127.1903         estimate D2E/DX2                !
 ! A47   A(13,20,22)           112.0568         estimate D2E/DX2                !
 ! A48   A(21,20,22)           120.7526         estimate D2E/DX2                !
 ! A49   A(19,22,20)            91.8762         estimate D2E/DX2                !
 ! A50   A(24,23,31)           113.6892         estimate D2E/DX2                !
 ! A51   A(24,23,37)           122.3206         estimate D2E/DX2                !
 ! A52   A(31,23,37)           123.9842         estimate D2E/DX2                !
 ! A53   A(23,24,29)           112.6144         estimate D2E/DX2                !
 ! A54   A(23,24,38)           122.482          estimate D2E/DX2                !
 ! A55   A(29,24,38)           124.896          estimate D2E/DX2                !
 ! A56   A(26,25,27)           110.3503         estimate D2E/DX2                !
 ! A57   A(26,25,38)           109.541          estimate D2E/DX2                !
 ! A58   A(26,25,40)           109.2443         estimate D2E/DX2                !
 ! A59   A(27,25,38)           110.7795         estimate D2E/DX2                !
 ! A60   A(27,25,40)           110.6539         estimate D2E/DX2                !
 ! A61   A(38,25,40)           106.1757         estimate D2E/DX2                !
 ! A62   A(25,27,28)           111.1306         estimate D2E/DX2                !
 ! A63   A(25,27,37)           110.6531         estimate D2E/DX2                !
 ! A64   A(25,27,39)           110.5696         estimate D2E/DX2                !
 ! A65   A(28,27,37)           105.9069         estimate D2E/DX2                !
 ! A66   A(28,27,39)           109.5077         estimate D2E/DX2                !
 ! A67   A(37,27,39)           108.9466         estimate D2E/DX2                !
 ! A68   A(24,29,30)           127.1904         estimate D2E/DX2                !
 ! A69   A(24,29,32)           112.0567         estimate D2E/DX2                !
 ! A70   A(30,29,32)           120.7525         estimate D2E/DX2                !
 ! A71   A(6,31,23)            127.591          estimate D2E/DX2                !
 ! A72   A(6,31,32)            122.6461         estimate D2E/DX2                !
 ! A73   A(23,31,32)           109.7613         estimate D2E/DX2                !
 ! A74   A(29,32,31)            91.8763         estimate D2E/DX2                !
 ! A75   A(13,33,17)           112.3328         estimate D2E/DX2                !
 ! A76   A(14,34,15)           113.0151         estimate D2E/DX2                !
 ! A77   A(23,37,27)           113.0153         estimate D2E/DX2                !
 ! A78   A(24,38,25)           112.3327         estimate D2E/DX2                !
 ! D1    D(3,1,2,5)              0.1032         estimate D2E/DX2                !
 ! D2    D(3,1,2,9)           -179.878          estimate D2E/DX2                !
 ! D3    D(12,1,2,5)           179.9269         estimate D2E/DX2                !
 ! D4    D(12,1,2,9)            -0.0543         estimate D2E/DX2                !
 ! D5    D(2,1,3,4)             -0.1048         estimate D2E/DX2                !
 ! D6    D(2,1,3,19)           179.7719         estimate D2E/DX2                !
 ! D7    D(12,1,3,4)          -179.9264         estimate D2E/DX2                !
 ! D8    D(12,1,3,19)           -0.0496         estimate D2E/DX2                !
 ! D9    D(1,2,5,4)             -0.0623         estimate D2E/DX2                !
 ! D10   D(1,2,5,6)            179.9429         estimate D2E/DX2                !
 ! D11   D(9,2,5,4)            179.9164         estimate D2E/DX2                !
 ! D12   D(9,2,5,6)             -0.0784         estimate D2E/DX2                !
 ! D13   D(1,3,4,5)              0.0591         estimate D2E/DX2                !
 ! D14   D(1,3,4,7)           -179.9351         estimate D2E/DX2                !
 ! D15   D(19,3,4,5)          -179.8003         estimate D2E/DX2                !
 ! D16   D(19,3,4,7)             0.2055         estimate D2E/DX2                !
 ! D17   D(1,3,19,14)           -0.4101         estimate D2E/DX2                !
 ! D18   D(1,3,19,22)         -179.8961         estimate D2E/DX2                !
 ! D19   D(4,3,19,14)          179.4317         estimate D2E/DX2                !
 ! D20   D(4,3,19,22)           -0.0544         estimate D2E/DX2                !
 ! D21   D(3,4,5,2)              0.0035         estimate D2E/DX2                !
 ! D22   D(3,4,5,6)           -179.9998         estimate D2E/DX2                !
 ! D23   D(7,4,5,2)            179.9997         estimate D2E/DX2                !
 ! D24   D(7,4,5,6)             -0.0036         estimate D2E/DX2                !
 ! D25   D(3,4,7,8)           -179.9428         estimate D2E/DX2                !
 ! D26   D(3,4,7,10)             0.0781         estimate D2E/DX2                !
 ! D27   D(5,4,7,8)              0.063          estimate D2E/DX2                !
 ! D28   D(5,4,7,10)          -179.9161         estimate D2E/DX2                !
 ! D29   D(2,5,6,8)            179.9352         estimate D2E/DX2                !
 ! D30   D(2,5,6,31)            -0.2055         estimate D2E/DX2                !
 ! D31   D(4,5,6,8)             -0.0597         estimate D2E/DX2                !
 ! D32   D(4,5,6,31)           179.7997         estimate D2E/DX2                !
 ! D33   D(5,6,8,7)              0.106          estimate D2E/DX2                !
 ! D34   D(5,6,8,11)           179.9216         estimate D2E/DX2                !
 ! D35   D(31,6,8,7)          -179.7708         estimate D2E/DX2                !
 ! D36   D(31,6,8,11)            0.0448         estimate D2E/DX2                !
 ! D37   D(5,6,31,23)         -179.43           estimate D2E/DX2                !
 ! D38   D(5,6,31,32)            0.0555         estimate D2E/DX2                !
 ! D39   D(8,6,31,23)            0.4118         estimate D2E/DX2                !
 ! D40   D(8,6,31,32)          179.8973         estimate D2E/DX2                !
 ! D41   D(4,7,8,6)             -0.1043         estimate D2E/DX2                !
 ! D42   D(4,7,8,11)          -179.9222         estimate D2E/DX2                !
 ! D43   D(10,7,8,6)           179.8772         estimate D2E/DX2                !
 ! D44   D(10,7,8,11)            0.0594         estimate D2E/DX2                !
 ! D45   D(20,13,14,19)          0.4798         estimate D2E/DX2                !
 ! D46   D(20,13,14,34)        179.6195         estimate D2E/DX2                !
 ! D47   D(33,13,14,19)        179.5221         estimate D2E/DX2                !
 ! D48   D(33,13,14,34)         -1.3382         estimate D2E/DX2                !
 ! D49   D(14,13,20,21)       -179.9887         estimate D2E/DX2                !
 ! D50   D(14,13,20,22)         -0.2283         estimate D2E/DX2                !
 ! D51   D(33,13,20,21)          0.9963         estimate D2E/DX2                !
 ! D52   D(33,13,20,22)       -179.2433         estimate D2E/DX2                !
 ! D53   D(14,13,33,17)         18.2168         estimate D2E/DX2                !
 ! D54   D(20,13,33,17)       -162.8611         estimate D2E/DX2                !
 ! D55   D(13,14,19,3)         179.962          estimate D2E/DX2                !
 ! D56   D(13,14,19,22)         -0.4979         estimate D2E/DX2                !
 ! D57   D(34,14,19,3)           0.8387         estimate D2E/DX2                !
 ! D58   D(34,14,19,22)       -179.6211         estimate D2E/DX2                !
 ! D59   D(13,14,34,15)         15.4924         estimate D2E/DX2                !
 ! D60   D(19,14,34,15)       -165.4577         estimate D2E/DX2                !
 ! D61   D(16,15,17,18)         57.85           estimate D2E/DX2                !
 ! D62   D(16,15,17,33)        179.3371         estimate D2E/DX2                !
 ! D63   D(16,15,17,36)        -63.181          estimate D2E/DX2                !
 ! D64   D(34,15,17,18)        -59.5172         estimate D2E/DX2                !
 ! D65   D(34,15,17,33)         61.9699         estimate D2E/DX2                !
 ! D66   D(34,15,17,36)        179.4518         estimate D2E/DX2                !
 ! D67   D(35,15,17,18)        179.6816         estimate D2E/DX2                !
 ! D68   D(35,15,17,33)        -58.8313         estimate D2E/DX2                !
 ! D69   D(35,15,17,36)         58.6506         estimate D2E/DX2                !
 ! D70   D(16,15,34,14)       -164.6435         estimate D2E/DX2                !
 ! D71   D(17,15,34,14)        -44.1115         estimate D2E/DX2                !
 ! D72   D(35,15,34,14)         77.6492         estimate D2E/DX2                !
 ! D73   D(15,17,33,13)        -46.936          estimate D2E/DX2                !
 ! D74   D(18,17,33,13)         75.026          estimate D2E/DX2                !
 ! D75   D(36,17,33,13)       -167.1271         estimate D2E/DX2                !
 ! D76   D(3,19,22,20)         179.8768         estimate D2E/DX2                !
 ! D77   D(14,19,22,20)          0.3095         estimate D2E/DX2                !
 ! D78   D(13,20,22,19)         -0.046          estimate D2E/DX2                !
 ! D79   D(21,20,22,19)        179.7319         estimate D2E/DX2                !
 ! D80   D(31,23,24,29)         -0.4796         estimate D2E/DX2                !
 ! D81   D(31,23,24,38)       -179.5219         estimate D2E/DX2                !
 ! D82   D(37,23,24,29)       -179.6191         estimate D2E/DX2                !
 ! D83   D(37,23,24,38)          1.3385         estimate D2E/DX2                !
 ! D84   D(24,23,31,6)        -179.9621         estimate D2E/DX2                !
 ! D85   D(24,23,31,32)          0.4981         estimate D2E/DX2                !
 ! D86   D(37,23,31,6)          -0.839          estimate D2E/DX2                !
 ! D87   D(37,23,31,32)        179.6212         estimate D2E/DX2                !
 ! D88   D(24,23,37,27)        -15.4917         estimate D2E/DX2                !
 ! D89   D(31,23,37,27)        165.4585         estimate D2E/DX2                !
 ! D90   D(23,24,29,30)        179.9889         estimate D2E/DX2                !
 ! D91   D(23,24,29,32)          0.2276         estimate D2E/DX2                !
 ! D92   D(38,24,29,30)         -0.996          estimate D2E/DX2                !
 ! D93   D(38,24,29,32)        179.2427         estimate D2E/DX2                !
 ! D94   D(23,24,38,25)        -18.2176         estimate D2E/DX2                !
 ! D95   D(29,24,38,25)        162.8602         estimate D2E/DX2                !
 ! D96   D(26,25,27,28)        -57.8491         estimate D2E/DX2                !
 ! D97   D(26,25,27,37)         59.5181         estimate D2E/DX2                !
 ! D98   D(26,25,27,39)       -179.6803         estimate D2E/DX2                !
 ! D99   D(38,25,27,28)       -179.3365         estimate D2E/DX2                !
 ! D100  D(38,25,27,37)        -61.9693         estimate D2E/DX2                !
 ! D101  D(38,25,27,39)         58.8323         estimate D2E/DX2                !
 ! D102  D(40,25,27,28)         63.1816         estimate D2E/DX2                !
 ! D103  D(40,25,27,37)       -179.4512         estimate D2E/DX2                !
 ! D104  D(40,25,27,39)        -58.6496         estimate D2E/DX2                !
 ! D105  D(26,25,38,24)        -75.0262         estimate D2E/DX2                !
 ! D106  D(27,25,38,24)         46.9364         estimate D2E/DX2                !
 ! D107  D(40,25,38,24)        167.1271         estimate D2E/DX2                !
 ! D108  D(25,27,37,23)         44.1105         estimate D2E/DX2                !
 ! D109  D(28,27,37,23)        164.6421         estimate D2E/DX2                !
 ! D110  D(39,27,37,23)        -77.6507         estimate D2E/DX2                !
 ! D111  D(24,29,32,31)          0.0467         estimate D2E/DX2                !
 ! D112  D(30,29,32,31)       -179.7321         estimate D2E/DX2                !
 ! D113  D(6,31,32,29)        -179.8769         estimate D2E/DX2                !
 ! D114  D(23,31,32,29)         -0.31           estimate D2E/DX2                !
 --------------------------------------------------------------------------------
 Trust Radius=3.00D-01 FncErr=1.00D-07 GrdErr=1.00D-06
 Number of steps in this run=    240 maximum allowed number of steps=    240.
 GradGradGradGradGradGradGradGradGradGradGradGradGradGradGradGradGradGrad

                          Input orientation:                          
 ---------------------------------------------------------------------
 Center     Atomic      Atomic             Coordinates (Angstroms)
 Number     Number       Type             X           Y           Z
 ---------------------------------------------------------------------
      1          7           0       -1.351578    1.053555   -2.635486
      2          6           0        0.067506    1.053979   -2.672422
      3          6           0       -1.862249    0.724395   -1.381900
      4          6           0       -0.770736    0.495342   -0.555088
      5          6           0        0.426997    0.687952   -1.311485
      6          6           0        1.518511    0.458896   -0.484676
      7          6           0       -0.411244    0.129309    0.805848
      8          7           0        1.007840    0.129747    0.768914
      9          8           0        0.729953    1.317093   -3.672361
     10          8           0       -1.073691   -0.133811    1.805784
     11          1           0        1.579319   -0.090018    1.572714
     12          1           0       -1.923053    1.273254   -3.439307
     13          6           0       -5.599824    0.792393   -1.472786
     14          6           0       -4.298749    0.932174   -2.034701
     15          6           0       -5.282547    1.808234   -3.974740
     16          1           0       -5.090641    1.776715   -5.049171
     17          6           0       -6.505136    0.980073   -3.611712
     18          1           0       -6.371893   -0.060429   -3.936869
     19          6           0       -3.272012    0.673480   -1.135919
     20          6           0       -5.566987    0.439181   -0.149396
     21          1           0       -6.411860    0.271547    0.503034
     22         16           0       -3.947107    0.263669    0.436778
     23          6           0        3.955014    0.251073    0.168108
     24          6           0        5.256087    0.390848   -0.393814
     25          6           0        6.161415    0.203124    1.745098
     26          1           0        6.028200    1.243625    2.070269
     27          6           0        4.938817   -0.625020    2.108132
     28          1           0        4.746923   -0.593494    3.182567
     29          6           0        5.223246    0.744093   -1.717195
     30          1           0        6.068115    0.911727   -2.369629
     31          6           0        2.928274    0.509799   -0.730661
     32         16           0        3.603362    0.919626   -2.303356
     33          8           0       -6.741358    1.014251   -2.196504
     34          8           0       -4.100344    1.272467   -3.346195
     35          1           0       -5.414208    2.849850   -3.656506
     36          1           0       -7.401968    1.391472   -4.079889
     37          8           0        3.756616   -0.089242    1.479598
     38          8           0        6.397624    0.168957    0.329890
     39          1           0        5.070462   -1.666640    1.789904
     40          1           0        7.058242   -0.208300    2.213265
 ---------------------------------------------------------------------
                    Distance matrix (angstroms):
                    1          2          3          4          5
     1  N    0.000000
     2  C    1.419565   0.000000
     3  C    1.393057   2.344787   0.000000
     4  C    2.230927   2.344745   1.388339   0.000000
     5  C    2.247215   1.454427   2.290619   1.429615   0.000000
     6  C    3.635521   2.691797   3.507854   2.290620   1.388338
     7  C    3.685273   3.630782   2.691799   1.454428   2.344745
     8  N    4.243844   3.685272   3.635522   2.247215   2.230926
     9  O    2.340370   1.227983   3.509560   3.555943   2.461978
    10  O    4.605642   4.771531   3.394064   2.461977   3.555942
    11  H    5.254223   4.649246   4.608406   3.223809   3.201826
    12  H    1.010435   2.144416   2.130227   3.201828   3.223808
    13  C    4.412218   5.798809   3.739298   4.924480   6.029884
    14  C    3.010231   4.414262   2.530979   3.850578   4.786999
    15  C    4.220860   5.557697   4.426733   5.811553   6.398973
    16  H    4.508817   5.725187   4.997876   6.363983   6.752779
    17  C    5.245720   6.639831   5.156921   6.516230   7.309641
    18  H    5.304538   6.656320   5.242204   6.566451   7.326501
    19  C    2.466014   3.695673   1.431967   2.574001   3.703201
    20  C    4.932319   6.204123   3.914779   4.813706   6.110661
    21  H    6.005689   7.257955   4.945403   5.743865   7.087724
    22  S    4.098719   5.138952   2.804727   3.335686   4.729612
    23  C    6.055083   4.881187   6.038800   4.787002   3.850580
    24  C    7.008959   5.705539   7.194322   6.029886   4.924480
    25  C    8.738296   7.574574   8.627226   7.309649   6.516234
    26  H    8.754506   7.619643   8.628224   7.326524   6.566468
    27  C    8.055346   7.028684   7.762457   6.398980   5.811557
    28  H    8.588028   7.674113   8.139554   6.752791   6.363990
    29  C    6.645851   5.252632   7.093451   6.110662   4.813705
    30  H    7.425809   6.009927   7.993834   7.087723   5.743862
    31  C    4.716054   3.500080   4.839346   3.703203   2.574001
    32  S    4.967865   3.557603   5.546179   4.729608   3.335682
    33  O    5.407770   6.825592   4.955129   6.213843   7.230148
    34  O    2.847586   4.227609   3.027855   4.413671   4.997851
    35  H    4.557864   5.851732   4.723114   6.060061   6.655269
    36  H    6.229583   7.608410   6.197792   7.563102   8.333768
    37  O    6.658344   5.670605   6.357816   4.997860   4.413676
    38  O    8.344226   7.061695   8.453652   7.230152   6.213844
    39  H    8.259911   7.234894   7.989986   6.655280   6.060073
    40  H    9.789164   8.621698   9.662830   8.333774   7.563104
                    6          7          8          9         10
     6  C    0.000000
     7  C    2.344789   0.000000
     8  N    1.393058   1.419565   0.000000
     9  O    3.394063   4.771532   4.605642   0.000000
    10  O    3.509561   1.227982   2.340370   5.947128   0.000000
    11  H    2.130225   2.144418   1.010435   5.496562   2.663588
    12  H    4.608404   4.649249   5.254224   2.663583   5.496565
    13  C    7.194322   5.705543   7.008962   6.721571   5.665047
    14  C    6.038798   4.881189   6.055083   5.302635   5.127051
    15  C    7.762451   7.028684   8.055342   6.040100   7.409485
    16  H    8.139542   7.674109   8.588020   5.998848   8.171683
    17  C    8.627218   7.574573   8.738292   7.243188   7.751812
    18  H    8.628199   7.619626   8.754486   7.239043   7.813731
    19  C    4.839346   3.500082   4.716054   4.781579   3.760047
    20  C    7.093454   5.252637   6.645855   7.268663   4.933635
    21  H    7.993839   6.009935   7.425816   8.338620   5.509766
    22  S    5.546185   3.557610   4.967872   6.314239   3.207598
    23  C    2.530981   4.414266   3.010236   5.127048   5.302640
    24  C    3.739300   5.798813   4.412223   5.665041   6.721576
    25  C    5.156924   6.639841   5.245727   7.751811   7.243201
    26  H    5.242217   6.656343   5.304551   7.813745   7.239070
    27  C    4.426739   5.557707   4.220872   7.409483   6.040112
    28  H    4.997884   5.725201   4.508829   8.171685   5.998865
    29  C    3.914780   6.204126   4.932323   4.933628   7.268666
    30  H    4.945402   7.257956   6.005691   5.509756   8.338622
    31  C    1.431968   3.695675   2.466015   3.760045   4.781580
    32  S    2.804723   5.138950   4.098718   3.207590   6.314237
    33  O    8.453651   7.061698   8.344227   7.621703   7.032695
    34  O    6.357808   5.670602   6.658339   4.841502   6.138496
    35  H    7.989979   7.234887   8.259903   6.332481   7.588078
    36  H    9.662826   8.621700   9.789163   8.142466   8.775803
    37  O    3.027861   4.227619   2.847595   6.138497   4.841513
    38  O    4.955131   6.825598   5.407777   7.032690   7.621711
    39  H    4.723132   5.851743   4.557886   7.588084   6.332490
    40  H    6.197794   7.608418   6.229590   8.775800   8.142477
                   11         12         13         14         15
    11  H    0.000000
    12  H    6.264621   0.000000
    13  C    7.848173   4.197270   0.000000
    14  C    6.972087   2.780860   1.424108   0.000000
    15  C    9.025675   3.443703   2.718892   2.345014   0.000000
    16  H    9.582402   3.588697   3.744154   3.229144   1.091890
    17  C    9.663425   4.594689   2.330197   2.712453   1.520646
    18  H    9.673580   4.671023   2.719393   2.983526   2.163333
    19  C    5.608479   2.735876   2.355064   1.388856   3.659074
    20  C    7.369898   4.979704   1.370109   2.325047   4.072894
    21  H    8.070557   6.057628   2.198760   3.367754   4.866951
    22  S    5.653037   4.487771   2.580205   2.584330   4.861129
    23  C    2.780861   6.972085   9.709814   8.569765  10.243070
    24  C    4.197271   7.848167  10.916786   9.709811  11.220286
    25  C    4.594698   9.663429  12.207734  11.146005  12.894076
    26  H    4.671050   9.673610  12.164201  11.117268  12.837208
    27  C    3.443708   9.025674  11.220294  10.243073  12.140772
    28  H    3.588709   9.582408  11.430143  10.553281  12.553311
    29  C    4.979703   7.369889  10.825937   9.529143  10.798175
    30  H    6.057627   8.070544  11.702964  10.372293  11.498593
    31  C    2.735872   5.608476   8.564991   7.355867   8.923428
    32  S    4.487767   5.653026   9.241465   7.906686   9.085292
    33  O    9.201091   4.982741   1.369704   2.449338   2.433241
    34  O    7.636138   2.179281   2.447156   1.369372   1.442123
    35  H    9.213956   3.836795   3.006030   2.748087   1.097074
    36  H   10.714954   5.517502   3.225462   3.744825   2.162566
    37  O    2.179287   7.636142   9.850727   8.847739  10.726448
    38  O    4.982744   9.201086  12.148130  10.981174  12.555615
    39  H    3.836794   9.213950  11.425716  10.448136  12.348711
    40  H    5.517508  10.714954  13.221762  12.178963  13.951806
                   16         17         18         19         20
    16  H    0.000000
    17  C    2.168346   0.000000
    18  H    2.500784   1.098237   0.000000
    19  C    4.453996   4.083704   4.241840   0.000000
    20  C    5.101343   3.627716   3.904156   2.508991   0.000000
    21  H    5.902383   4.176343   4.452476   3.564599   1.080545
    22  S    5.804534   4.842212   5.011329   1.759851   1.731593
    23  C   10.553268  11.145996  11.117233   7.355870   9.529150
    24  C   11.430125  12.207720  12.164161   8.564991  10.825941
    25  C   13.238091  13.774635  13.763648   9.874768  11.882771
    26  H   13.213600  13.763680  13.840107   9.853865  11.833106
    27  C   12.553300  12.894068  12.837171   8.923434  10.798188
    28  H   13.044427  13.238095  13.213576   9.195535  10.887843
    29  C   10.887821  11.882753  11.833066   8.515414  10.907800
    30  H   11.508518  12.634638  12.575974   9.424265  11.854465
    31  C    9.195521   9.874758   9.853834   6.215671   8.515416
    32  S    9.157499  10.192997  10.155520   6.978128   9.432162
    33  O    3.382887   1.435194   2.078536   3.643807   2.429095
    34  O    2.033490   2.437010   2.699156   2.435208   3.614544
    35  H    1.787688   2.165224   3.076603   3.959665   4.258461
    36  H    2.535774   1.092129   1.785924   5.122403   4.441035
    37  O   11.152604  11.505148  11.485889   7.538188   9.479579
    38  O   12.786689  13.515745  13.465453   9.793110  11.977256
    39  H   12.723115  13.045191  12.895865   9.145134  11.015929
    40  H   14.292607  14.809045  14.772087  10.895353  12.860708
                   21         22         23         24         25
    21  H    0.000000
    22  S    2.465656   0.000000
    23  C   10.372303   7.906697   0.000000
    24  C   11.702972   9.241474   1.424108   0.000000
    25  C   12.634661  10.193016   2.712453   2.330194   0.000000
    26  H   12.576019  10.155558   2.983534   2.719392   1.098237
    27  C   11.498610   9.085309   2.345016   2.718893   1.520645
    28  H   11.508546   9.157524   3.229145   3.744153   2.168342
    29  C   11.854468   9.432167   2.325048   1.370109   3.627710
    30  H   12.822316  10.421160   3.367754   2.198761   4.176338
    31  C    9.424270   6.978134   1.388856   2.355064   4.083703
    32  S   10.421157   8.059044   2.584329   2.580205   4.842209
    33  O    2.819164   3.912210  10.981175  12.148128  13.515758
    34  O    4.600164   3.918168   8.847732   9.850716  11.505149
    35  H    4.994470   5.059218  10.448140  11.425719  13.045211
    36  H    4.820553   5.797265  12.178958  13.221753  14.809051
    37  O   10.221631   7.781990   1.369373   2.447156   2.437012
    38  O   12.811065  10.345717   2.449339   1.369704   1.435192
    39  H   11.715644   9.320600   2.748103   3.006050   2.165226
    40  H   13.586714  11.157794   3.744825   3.225461   1.092130
                   26         27         28         29         30
    26  H    0.000000
    27  C    2.163336   0.000000
    28  H    2.500777   1.091892   0.000000
    29  C    3.904147   4.072898   5.101342   0.000000
    30  H    4.452465   4.866955   5.902382   1.080544   0.000000
    31  C    4.241845   3.659077   4.453997   2.508992   3.564599
    32  S    5.011328   4.861131   5.804534   1.731595   2.465656
    33  O   13.465496  12.555620  12.786706  11.977248  12.811053
    34  O   11.485918  10.726443  11.152609   9.479565  10.221613
    35  H   12.895915  12.348721  12.723133  11.015923  11.715635
    36  H   14.772126  13.951803  14.292617  12.860694  13.586695
    37  O    2.699170   1.442121   2.033490   3.614545   4.600165
    38  O    2.078534   2.433241   3.382885   2.429095   2.819164
    39  H    3.076607   1.097074   1.787688   4.258488   4.994497
    40  H    1.785923   2.162561   2.535767   4.441034   4.820553
                   31         32         33         34         35
    31  C    0.000000
    32  S    1.759850   0.000000
    33  O    9.793107  10.345705   0.000000
    34  O    7.538180   7.781973   2.891958   0.000000
    35  H    9.145131   9.320587   2.694876   2.076215   0.000000
    36  H   10.895346  11.157777   2.031216   3.384256   2.501461
    37  O    2.435210   3.918168  11.177606   9.320641  10.914295
    38  O    3.643807   3.912210  13.406343  11.177597  12.751389
    39  H    3.959685   5.059242  12.751381  10.914282  12.648730
    40  H    5.122402   5.797265  14.538557  12.554454  14.119791
                   36         37         38         39         40
    36  H    0.000000
    37  O   12.554458   0.000000
    38  O   14.538550   2.891958   0.000000
    39  H   14.119774   2.076214   2.694887   0.000000
    40  H   15.851206   3.384254   2.031216   2.501451   0.000000
 Symmetry turned off by external request.
 Stoichiometry    C18H12N2O6S2(1+,2)
 Framework group  C1[X(C18H12N2O6S2)]
 Deg. of freedom   114
 Full point group                 C1      NOp   1
 Rotational constants (GHZ):      0.4441311      0.0698267      0.0605512
 Standard basis: 6-31+G(d,p) (6D, 7F)
 Integral buffers will be    262144 words long.
 Raffenetti 2 integral format.
 Two-electron integral symmetry is turned off.
   600 basis functions,  1028 primitive gaussians,   600 cartesian basis functions
   107 alpha electrons      106 beta electrons
       nuclear repulsion energy      2837.4392607812 Hartrees.
 NAtoms=   40 NActive=   40 NUniq=   40 SFac= 1.00D+00 NAtFMM=   50 NAOKFM=F Big=F
 One-electron integrals computed using PRISM.
 NBasis=   600 RedAO= T  NBF=   600
 NBsUse=   594 1.00D-06 NBFU=   594
 Harris functional with IExCor=  402 diagonalized for initial guess.
 ExpMin= 4.05D-02 ExpMax= 2.19D+04 ExpMxC= 3.30D+03 IAcc=2 IRadAn=         0 AccDes= 0.00D+00
 HarFok:  IExCor=  402 AccDes= 0.00D+00 IRadAn=         0 IDoV= 1
 ScaDFX=  1.000000  1.000000  1.000000  1.000000
 FoFCou: FMM=F IPFlag=           0 FMFlag=      100000 FMFlg1=           0
         NFxFlg=           0 DoJE=T BraDBF=F KetDBF=T FulRan=T
         Omega=  0.000000  0.000000  1.000000  0.000000  0.000000 ICntrl=     500 IOpCl=  0
         NMat0=    1 NMatS0=    1 NMatT0=    0 NMatD0=    1 NMtDS0=    0 NMtDT0=    0
         I1Cent=           4 NGrid=           0.
 Symmetry not used in FoFCou.
 Initial guess <Sx>= 0.0000 <Sy>= 0.0000 <Sz>= 0.5000 <S**2>= 0.7500 S= 0.5000
 Requested convergence on RMS density matrix=1.00D-08 within 128 cycles.
 Requested convergence on MAX density matrix=1.00D-06.
 Requested convergence on             energy=1.00D-06.
 No special actions if energy rises.
 DSYEVD returned Info=      332009 IAlg= 4 N=   594 NDim=   594 NE2=       54071 trying DSYEV.
 DSYEVD returned Info=      332009 IAlg= 4 N=   594 NDim=   594 NE2=       54071 trying DSYEV.
 DSYEVD returned Info=      332009 IAlg= 4 N=   594 NDim=   594 NE2=       54071 trying DSYEV.
 DSYEVD returned Info=      332009 IAlg= 4 N=   594 NDim=   594 NE2=       54071 trying DSYEV.
 Restarting incremental Fock formation.
 DSYEVD returned Info=      332009 IAlg= 4 N=   594 NDim=   594 NE2=       54071 trying DSYEV.
 SCF Done:  E(UB3LYP) =  -2050.14378788     A.U. after   22 cycles
             Convg  =    0.3635D-08             -V/T =  2.0069
 <Sx>= 0.0000 <Sy>= 0.0000 <Sz>= 0.5000 <S**2>= 0.7594 S= 0.5047
 <L.S>= 0.000000000000E+00
 Annihilation of the first spin contaminant:
 S**2 before annihilation     0.7594,   after     0.7501

 **********************************************************************

            Population analysis using the SCF density.

 **********************************************************************

 Alpha  occ. eigenvalues --  -89.05024 -89.05024 -19.33984 -19.33984 -19.31366
 Alpha  occ. eigenvalues --  -19.31366 -19.27478 -19.27478 -14.51845 -14.51845
 Alpha  occ. eigenvalues --  -10.43894 -10.43894 -10.41959 -10.41959 -10.40762
 Alpha  occ. eigenvalues --  -10.40762 -10.38966 -10.38966 -10.37739 -10.37739
 Alpha  occ. eigenvalues --  -10.37541 -10.37541 -10.37017 -10.37017 -10.36090
 Alpha  occ. eigenvalues --  -10.36090 -10.34980 -10.34935  -8.10790  -8.10790
 Alpha  occ. eigenvalues --   -6.07256  -6.07256  -6.06868  -6.06868  -6.06432
 Alpha  occ. eigenvalues --   -6.06431  -1.22864  -1.22861  -1.18911  -1.18888
 Alpha  occ. eigenvalues --   -1.18582  -1.18026  -1.11733  -1.10116  -1.02616
 Alpha  occ. eigenvalues --   -1.02583  -0.95454  -0.92419  -0.90993  -0.90754
 Alpha  occ. eigenvalues --   -0.90673  -0.86178  -0.84789  -0.84407  -0.82727
 Alpha  occ. eigenvalues --   -0.81622  -0.78301  -0.77710  -0.75496  -0.72870
 Alpha  occ. eigenvalues --   -0.70223  -0.69331  -0.68201  -0.67973  -0.67691
 Alpha  occ. eigenvalues --   -0.67552  -0.65359  -0.64594  -0.62988  -0.62529
 Alpha  occ. eigenvalues --   -0.62117  -0.60943  -0.59812  -0.59455  -0.57740
 Alpha  occ. eigenvalues --   -0.57703  -0.57234  -0.56797  -0.56740  -0.56036
 Alpha  occ. eigenvalues --   -0.56004  -0.55891  -0.55162  -0.54770  -0.53884
 Alpha  occ. eigenvalues --   -0.53721  -0.53645  -0.52888  -0.52740  -0.49860
 Alpha  occ. eigenvalues --   -0.48750  -0.48672  -0.48534  -0.46960  -0.46939
 Alpha  occ. eigenvalues --   -0.45711  -0.45445  -0.44100  -0.43930  -0.41184
 Alpha  occ. eigenvalues --   -0.40928  -0.39793  -0.38672  -0.37897  -0.35454
 Alpha  occ. eigenvalues --   -0.35401  -0.33071
 Alpha virt. eigenvalues --   -0.23385  -0.17780  -0.13546  -0.11527  -0.11278
 Alpha virt. eigenvalues --   -0.11170  -0.10211  -0.10204  -0.08306  -0.08126
 Alpha virt. eigenvalues --   -0.07831  -0.07506  -0.07191  -0.06893  -0.06510
 Alpha virt. eigenvalues --   -0.06308  -0.06213  -0.05669  -0.05134  -0.05030
 Alpha virt. eigenvalues --   -0.04626  -0.04323  -0.04284  -0.03676  -0.03200
 Alpha virt. eigenvalues --   -0.03007  -0.02752  -0.02352  -0.02135  -0.01741
 Alpha virt. eigenvalues --   -0.01701  -0.01489  -0.01174  -0.00856  -0.00665
 Alpha virt. eigenvalues --   -0.00407  -0.00176   0.00136   0.00504   0.00506
 Alpha virt. eigenvalues --    0.00949   0.01448   0.01577   0.02306   0.02814
 Alpha virt. eigenvalues --    0.03126   0.03245   0.03453   0.03456   0.03825
 Alpha virt. eigenvalues --    0.04205   0.04602   0.04892   0.05325   0.05443
 Alpha virt. eigenvalues --    0.05630   0.05901   0.06191   0.06285   0.06897
 Alpha virt. eigenvalues --    0.07110   0.07252   0.07676   0.07844   0.08162
 Alpha virt. eigenvalues --    0.09087   0.09152   0.09386   0.09448   0.09734
 Alpha virt. eigenvalues --    0.09852   0.09854   0.10049   0.10783   0.10929
 Alpha virt. eigenvalues --    0.11156   0.11594   0.11603   0.11917   0.11933
 Alpha virt. eigenvalues --    0.12070   0.12319   0.12657   0.12977   0.13102
 Alpha virt. eigenvalues --    0.13468   0.13864   0.13929   0.14159   0.14457
 Alpha virt. eigenvalues --    0.14642   0.14902   0.15260   0.15644   0.15746
 Alpha virt. eigenvalues --    0.15964   0.16638   0.16729   0.16750   0.17214
 Alpha virt. eigenvalues --    0.17401   0.17895   0.18350   0.18614   0.18744
 Alpha virt. eigenvalues --    0.19014   0.19241   0.19521   0.19692   0.19755
 Alpha virt. eigenvalues --    0.19964   0.20472   0.20774   0.21286   0.21581
 Alpha virt. eigenvalues --    0.21846   0.21946   0.22619   0.22951   0.23090
 Alpha virt. eigenvalues --    0.23178   0.23349   0.23803   0.24228   0.24478
 Alpha virt. eigenvalues --    0.24573   0.25108   0.25671   0.25927   0.26081
 Alpha virt. eigenvalues --    0.26793   0.27217   0.27723   0.27812   0.27943
 Alpha virt. eigenvalues --    0.28324   0.28513   0.29128   0.29807   0.30052
 Alpha virt. eigenvalues --    0.31404   0.32385   0.32712   0.33825   0.34788
 Alpha virt. eigenvalues --    0.35538   0.35695   0.35856   0.36479   0.36877
 Alpha virt. eigenvalues --    0.38073   0.39307   0.41344   0.41388   0.42428
 Alpha virt. eigenvalues --    0.42716   0.43586   0.45528   0.45622   0.46843
 Alpha virt. eigenvalues --    0.48198   0.48716   0.49611   0.49792   0.49868
 Alpha virt. eigenvalues --    0.52250   0.53206   0.53215   0.53647   0.53944
 Alpha virt. eigenvalues --    0.54124   0.54807   0.54858   0.56417   0.57187
 Alpha virt. eigenvalues --    0.57600   0.57810   0.58739   0.58883   0.59451
 Alpha virt. eigenvalues --    0.59899   0.60149   0.60735   0.62039   0.62847
 Alpha virt. eigenvalues --    0.64069   0.64244   0.65268   0.65672   0.67124
 Alpha virt. eigenvalues --    0.67392   0.67919   0.68489   0.68892   0.69222
 Alpha virt. eigenvalues --    0.69850   0.69979   0.70420   0.71761   0.72606
 Alpha virt. eigenvalues --    0.72700   0.74548   0.74747   0.75354   0.75959
 Alpha virt. eigenvalues --    0.78919   0.78995   0.79986   0.81096   0.81107
 Alpha virt. eigenvalues --    0.82486   0.83254   0.83900   0.84371   0.84713
 Alpha virt. eigenvalues --    0.85529   0.86346   0.87484   0.87691   0.88524
 Alpha virt. eigenvalues --    0.88983   0.89622   0.92184   0.93541   0.94013
 Alpha virt. eigenvalues --    0.95527   0.95676   0.96313   0.96514   0.97984
 Alpha virt. eigenvalues --    0.99109   0.99937   1.00114   1.01455   1.02367
 Alpha virt. eigenvalues --    1.02823   1.03828   1.05626   1.06506   1.06578
 Alpha virt. eigenvalues --    1.07347   1.08152   1.08430   1.08554   1.09260
 Alpha virt. eigenvalues --    1.09321   1.09821   1.10108   1.10884   1.12304
 Alpha virt. eigenvalues --    1.12315   1.12656   1.13591   1.14166   1.14406
 Alpha virt. eigenvalues --    1.14467   1.15276   1.15526   1.16939   1.17074
 Alpha virt. eigenvalues --    1.17304   1.18280   1.18715   1.19741   1.20302
 Alpha virt. eigenvalues --    1.20685   1.20964   1.21675   1.22550   1.23755
 Alpha virt. eigenvalues --    1.24462   1.24857   1.25821   1.26797   1.27492
 Alpha virt. eigenvalues --    1.27798   1.28084   1.28444   1.29876   1.30122
 Alpha virt. eigenvalues --    1.30386   1.31108   1.31420   1.32263   1.33690
 Alpha virt. eigenvalues --    1.34318   1.36997   1.37267   1.38460   1.38796
 Alpha virt. eigenvalues --    1.39743   1.41279   1.42385   1.43241   1.44928
 Alpha virt. eigenvalues --    1.45943   1.49253   1.49923   1.51052   1.53484
 Alpha virt. eigenvalues --    1.54247   1.54931   1.55509   1.55591   1.56650
 Alpha virt. eigenvalues --    1.59048   1.60377   1.61497   1.61559   1.62021
 Alpha virt. eigenvalues --    1.63789   1.64319   1.67013   1.67687   1.67711
 Alpha virt. eigenvalues --    1.68861   1.69188   1.69829   1.70995   1.71190
 Alpha virt. eigenvalues --    1.72286   1.72371   1.74227   1.75269   1.76015
 Alpha virt. eigenvalues --    1.76182   1.76583   1.77189   1.77362   1.78873
 Alpha virt. eigenvalues --    1.78989   1.80328   1.80500   1.81382   1.82846
 Alpha virt. eigenvalues --    1.83069   1.85211   1.85565   1.86673   1.86904
 Alpha virt. eigenvalues --    1.88320   1.88442   1.88812   1.89337   1.91123
 Alpha virt. eigenvalues --    1.92303   1.92809   1.93621   1.93682   1.94706
 Alpha virt. eigenvalues --    1.95174   1.98240   1.98352   1.99912   2.01028
 Alpha virt. eigenvalues --    2.01057   2.02149   2.02870   2.03176   2.04282
 Alpha virt. eigenvalues --    2.04974   2.05142   2.05392   2.06983   2.08342
 Alpha virt. eigenvalues --    2.10568   2.12068   2.12293   2.12819   2.15218
 Alpha virt. eigenvalues --    2.18754   2.19191   2.19439   2.19821   2.21174
 Alpha virt. eigenvalues --    2.22005   2.23620   2.27484   2.27848   2.28188
 Alpha virt. eigenvalues --    2.28939   2.29641   2.30332   2.31704   2.31918
 Alpha virt. eigenvalues --    2.32700   2.33902   2.34221   2.35012   2.35074
 Alpha virt. eigenvalues --    2.38906   2.39668   2.41015   2.41372   2.42401
 Alpha virt. eigenvalues --    2.42586   2.43849   2.43872   2.46630   2.47717
 Alpha virt. eigenvalues --    2.49046   2.50036   2.50156   2.51007   2.53245
 Alpha virt. eigenvalues --    2.53430   2.56182   2.57739   2.58169   2.59869
 Alpha virt. eigenvalues --    2.61316   2.62479   2.62879   2.63282   2.64047
 Alpha virt. eigenvalues --    2.66599   2.67101   2.67217   2.67911   2.69202
 Alpha virt. eigenvalues --    2.70420   2.72991   2.74333   2.75071   2.75889
 Alpha virt. eigenvalues --    2.79020   2.80453   2.81568   2.81773   2.83916
 Alpha virt. eigenvalues --    2.84063   2.90357   2.90852   2.91961   2.92374
 Alpha virt. eigenvalues --    2.95665   2.95833   2.96304   3.00837   3.07188
 Alpha virt. eigenvalues --    3.08505   3.11490   3.14093   3.15787   3.17530
 Alpha virt. eigenvalues --    3.19789   3.19927   3.20284   3.20666   3.24171
 Alpha virt. eigenvalues --    3.33640   3.35135   3.35208   3.36910   3.36912
 Alpha virt. eigenvalues --    3.41245   3.41269   3.47550   3.49354   3.85807
 Alpha virt. eigenvalues --    3.86271   4.10565   4.13883   4.15794   4.19035
 Alpha virt. eigenvalues --    4.19859   4.22163   4.25873   4.26703   4.28737
 Alpha virt. eigenvalues --    4.29384   4.34873   4.40276   4.41861   4.43581
 Alpha virt. eigenvalues --    4.43831   4.49506   4.51189   4.52564   4.60478
 Alpha virt. eigenvalues --    4.60676   4.63293   4.69898   4.77007   4.84243
 Alpha virt. eigenvalues --    4.95673   5.00219
  Beta  occ. eigenvalues --  -89.05030 -89.05030 -19.33922 -19.33922 -19.31361
  Beta  occ. eigenvalues --  -19.31361 -19.27154 -19.27154 -14.51855 -14.51855
  Beta  occ. eigenvalues --  -10.43927 -10.43927 -10.41865 -10.41865 -10.40692
  Beta  occ. eigenvalues --  -10.40692 -10.38999 -10.38999 -10.37741 -10.37740
  Beta  occ. eigenvalues --  -10.37488 -10.37488 -10.37016 -10.37016 -10.35918
  Beta  occ. eigenvalues --  -10.35918 -10.34744 -10.34698  -8.10796  -8.10795
  Beta  occ. eigenvalues --   -6.07264  -6.07264  -6.06876  -6.06876  -6.06439
  Beta  occ. eigenvalues --   -6.06439  -1.22769  -1.22767  -1.18858  -1.18848
  Beta  occ. eigenvalues --   -1.18164  -1.17560  -1.11363  -1.09915  -1.02431
  Beta  occ. eigenvalues --   -1.02397  -0.95047  -0.92072  -0.90854  -0.90691
  Beta  occ. eigenvalues --   -0.90565  -0.85744  -0.84712  -0.84330  -0.82565
  Beta  occ. eigenvalues --   -0.81464  -0.78150  -0.77543  -0.75241  -0.72714
  Beta  occ. eigenvalues --   -0.70103  -0.69223  -0.68130  -0.67897  -0.67615
  Beta  occ. eigenvalues --   -0.67468  -0.65277  -0.64530  -0.62862  -0.62418
  Beta  occ. eigenvalues --   -0.61995  -0.60151  -0.59618  -0.59242  -0.57538
  Beta  occ. eigenvalues --   -0.57437  -0.57026  -0.56693  -0.56578  -0.55866
  Beta  occ. eigenvalues --   -0.55832  -0.55570  -0.55021  -0.54652  -0.53744
  Beta  occ. eigenvalues --   -0.53634  -0.53391  -0.52581  -0.52523  -0.48984
  Beta  occ. eigenvalues --   -0.48668  -0.48479  -0.47576  -0.46721  -0.46711
  Beta  occ. eigenvalues --   -0.45279  -0.45151  -0.43856  -0.43756  -0.40853
  Beta  occ. eigenvalues --   -0.39969  -0.39450  -0.37473  -0.36732  -0.35188
  Beta  occ. eigenvalues --   -0.35147
  Beta virt. eigenvalues --   -0.28260  -0.21965  -0.16770  -0.12795  -0.11243
  Beta virt. eigenvalues --   -0.11089  -0.10884  -0.10178  -0.10156  -0.08261
  Beta virt. eigenvalues --   -0.08025  -0.07773  -0.07488  -0.07159  -0.06875
  Beta virt. eigenvalues --   -0.06290  -0.06259  -0.06080  -0.05490  -0.05089
  Beta virt. eigenvalues --   -0.04860  -0.04579  -0.04218  -0.04202  -0.03640
  Beta virt. eigenvalues --   -0.03184  -0.02897  -0.02595  -0.02322  -0.02039
  Beta virt. eigenvalues --   -0.01684  -0.01648  -0.01409  -0.01142  -0.00660
  Beta virt. eigenvalues --   -0.00349  -0.00098   0.00002   0.00502   0.00642
  Beta virt. eigenvalues --    0.00793   0.00992   0.01480   0.01607   0.02463
  Beta virt. eigenvalues --    0.02957   0.03152   0.03297   0.03488   0.03507
  Beta virt. eigenvalues --    0.03890   0.04238   0.04699   0.04926   0.05364
  Beta virt. eigenvalues --    0.05479   0.05663   0.05980   0.06238   0.06320
  Beta virt. eigenvalues --    0.06947   0.07145   0.07286   0.07722   0.07876
  Beta virt. eigenvalues --    0.08223   0.09127   0.09179   0.09446   0.09522
  Beta virt. eigenvalues --    0.09769   0.09885   0.10022   0.10092   0.10842
  Beta virt. eigenvalues --    0.10972   0.11224   0.11660   0.11665   0.11985
  Beta virt. eigenvalues --    0.12011   0.12160   0.12363   0.12689   0.13015
  Beta virt. eigenvalues --    0.13143   0.13517   0.13926   0.13947   0.14177
  Beta virt. eigenvalues --    0.14472   0.14697   0.15009   0.15327   0.15769
  Beta virt. eigenvalues --    0.15793   0.16011   0.16723   0.16817   0.16826
  Beta virt. eigenvalues --    0.17246   0.17466   0.17972   0.18409   0.18645
  Beta virt. eigenvalues --    0.18797   0.19099   0.19280   0.19580   0.19804
  Beta virt. eigenvalues --    0.19821   0.20004   0.20561   0.20864   0.21334
  Beta virt. eigenvalues --    0.21735   0.21949   0.22105   0.22669   0.22987
  Beta virt. eigenvalues --    0.23120   0.23215   0.23378   0.23840   0.24255
  Beta virt. eigenvalues --    0.24599   0.24625   0.25153   0.25725   0.25969
  Beta virt. eigenvalues --    0.26109   0.26846   0.27256   0.27787   0.27893
  Beta virt. eigenvalues --    0.27989   0.28346   0.28537   0.29179   0.29859
  Beta virt. eigenvalues --    0.30096   0.31442   0.32451   0.32768   0.33884
  Beta virt. eigenvalues --    0.34834   0.35587   0.35751   0.35964   0.36552
  Beta virt. eigenvalues --    0.36922   0.38131   0.39353   0.41394   0.41415
  Beta virt. eigenvalues --    0.42526   0.42747   0.43739   0.45585   0.45689
  Beta virt. eigenvalues --    0.46915   0.48302   0.48778   0.49665   0.49844
  Beta virt. eigenvalues --    0.49978   0.52379   0.53420   0.53539   0.53903
  Beta virt. eigenvalues --    0.54133   0.54423   0.54901   0.54915   0.56437
  Beta virt. eigenvalues --    0.57205   0.57747   0.57919   0.58928   0.59420
  Beta virt. eigenvalues --    0.59566   0.60068   0.60244   0.60869   0.62163
  Beta virt. eigenvalues --    0.62926   0.64302   0.64314   0.65386   0.65958
  Beta virt. eigenvalues --    0.67371   0.67472   0.67978   0.68544   0.68982
  Beta virt. eigenvalues --    0.69458   0.69912   0.70090   0.70962   0.71894
  Beta virt. eigenvalues --    0.72797   0.72909   0.74667   0.74862   0.75434
  Beta virt. eigenvalues --    0.76020   0.78988   0.79115   0.80053   0.81105
  Beta virt. eigenvalues --    0.81119   0.82601   0.83323   0.83954   0.84473
  Beta virt. eigenvalues --    0.84776   0.85595   0.86488   0.87529   0.87757
  Beta virt. eigenvalues --    0.88571   0.89032   0.89675   0.92267   0.93617
  Beta virt. eigenvalues --    0.94071   0.95550   0.95749   0.96375   0.96547
  Beta virt. eigenvalues --    0.98066   0.99125   0.99980   1.00230   1.01551
  Beta virt. eigenvalues --    1.02456   1.02939   1.03944   1.05742   1.06669
  Beta virt. eigenvalues --    1.06700   1.07400   1.08233   1.08594   1.08670
  Beta virt. eigenvalues --    1.09360   1.09455   1.09887   1.10241   1.11311
  Beta virt. eigenvalues --    1.12430   1.12580   1.12878   1.13712   1.14545
  Beta virt. eigenvalues --    1.14787   1.14942   1.15469   1.15886   1.17030
  Beta virt. eigenvalues --    1.17283   1.17600   1.18511   1.18844   1.19944
  Beta virt. eigenvalues --    1.20479   1.20807   1.21053   1.22103   1.22816
  Beta virt. eigenvalues --    1.23841   1.24527   1.24910   1.26195   1.26960
  Beta virt. eigenvalues --    1.27641   1.27974   1.28231   1.28848   1.30072
  Beta virt. eigenvalues --    1.30314   1.30457   1.31255   1.31542   1.32377
  Beta virt. eigenvalues --    1.33783   1.34501   1.37095   1.37379   1.38659
  Beta virt. eigenvalues --    1.39012   1.39893   1.41354   1.42523   1.43383
  Beta virt. eigenvalues --    1.45082   1.46038   1.49408   1.50092   1.51114
  Beta virt. eigenvalues --    1.53935   1.54682   1.55090   1.55588   1.55945
  Beta virt. eigenvalues --    1.56812   1.59183   1.60449   1.61702   1.61969
  Beta virt. eigenvalues --    1.62282   1.63917   1.64457   1.67130   1.67825
  Beta virt. eigenvalues --    1.68235   1.68986   1.69512   1.70010   1.71138
  Beta virt. eigenvalues --    1.71313   1.72354   1.72542   1.74367   1.75414
  Beta virt. eigenvalues --    1.76106   1.76290   1.76833   1.77396   1.77461
  Beta virt. eigenvalues --    1.79093   1.79120   1.80446   1.80735   1.81502
  Beta virt. eigenvalues --    1.83085   1.83288   1.85307   1.85675   1.86854
  Beta virt. eigenvalues --    1.87028   1.88550   1.88667   1.89077   1.89534
  Beta virt. eigenvalues --    1.91298   1.92393   1.93034   1.93832   1.93850
  Beta virt. eigenvalues --    1.94965   1.95357   1.98375   1.98478   2.00199
  Beta virt. eigenvalues --    2.01263   2.01386   2.02349   2.03201   2.03267
  Beta virt. eigenvalues --    2.04643   2.05062   2.05224   2.05474   2.07132
  Beta virt. eigenvalues --    2.08460   2.10747   2.12263   2.12443   2.12937
  Beta virt. eigenvalues --    2.15507   2.18906   2.19591   2.19674   2.20016
  Beta virt. eigenvalues --    2.21244   2.22103   2.23912   2.27809   2.28140
  Beta virt. eigenvalues --    2.28400   2.29189   2.29883   2.30504   2.31912
  Beta virt. eigenvalues --    2.32072   2.32917   2.34053   2.34292   2.35104
  Beta virt. eigenvalues --    2.35321   2.39064   2.39843   2.41076   2.41487
  Beta virt. eigenvalues --    2.42512   2.42816   2.43988   2.44207   2.46707
  Beta virt. eigenvalues --    2.47800   2.49232   2.50104   2.50273   2.51180
  Beta virt. eigenvalues --    2.53340   2.53652   2.56283   2.57851   2.58367
  Beta virt. eigenvalues --    2.59919   2.61367   2.62522   2.62896   2.63722
  Beta virt. eigenvalues --    2.64138   2.66655   2.67370   2.67388   2.67960
  Beta virt. eigenvalues --    2.69236   2.70534   2.73042   2.74436   2.75295
  Beta virt. eigenvalues --    2.75971   2.79074   2.80707   2.81633   2.81806
  Beta virt. eigenvalues --    2.84029   2.84147   2.90411   2.91007   2.92112
  Beta virt. eigenvalues --    2.92416   2.95750   2.95896   2.96500   3.00945
  Beta virt. eigenvalues --    3.07240   3.08567   3.11536   3.14232   3.15964
  Beta virt. eigenvalues --    3.17635   3.19806   3.19942   3.20301   3.20689
  Beta virt. eigenvalues --    3.24259   3.33777   3.35189   3.35262   3.36932
  Beta virt. eigenvalues --    3.36933   3.41264   3.41289   3.47579   3.49363
  Beta virt. eigenvalues --    3.85824   3.86288   4.10686   4.14076   4.15960
  Beta virt. eigenvalues --    4.19089   4.19913   4.22382   4.26137   4.26799
  Beta virt. eigenvalues --    4.28992   4.29650   4.35143   4.40423   4.41971
  Beta virt. eigenvalues --    4.43669   4.43915   4.49634   4.51212   4.52629
  Beta virt. eigenvalues --    4.60665   4.60785   4.63362   4.70241   4.77165
  Beta virt. eigenvalues --    4.84324   4.95858   5.00498
          Condensed to atoms (all electrons):
              1          2          3          4          5          6
     1  N    7.374149   0.522389  -0.020343   0.093615  -0.720270  -0.025487
     2  C    0.522389  11.551048  -0.592434  -0.423298  -5.166423  -0.759847
     3  C   -0.020343  -0.592434  11.145054   1.518542  -3.266886  -1.161907
     4  C    0.093615  -0.423298   1.518542  16.435693  -3.956317  -3.266882
     5  C   -0.720270  -5.166423  -3.266886  -3.956317  16.435575   1.518511
     6  C   -0.025487  -0.759847  -1.161907  -3.266882   1.518511  11.144951
     7  C    0.108410   1.803495  -0.759877  -5.166465  -0.423268  -0.592415
     8  N    0.005591   0.108411  -0.025490  -0.720281   0.093617  -0.020325
     9  O   -0.057429   0.179193   0.007268  -0.101967   0.122627   0.055494
    10  O   -0.005782  -0.020262   0.055496   0.122634  -0.101969   0.007267
    11  H    0.000222   0.011067  -0.007697  -0.039095   0.059171  -0.038945
    12  H    0.312508  -0.014569  -0.038945   0.059171  -0.039093  -0.007697
    13  C    0.094275   0.148591  -0.959044  -0.114713  -0.052755  -0.039034
    14  C    0.104726  -0.339462  -2.113979  -0.212462   1.536184   0.277186
    15  C   -0.009292  -0.028497  -0.079587   0.018980   0.032586   0.004133
    16  H   -0.000296  -0.000216   0.005033   0.000825  -0.001306  -0.000020
    17  C   -0.005090  -0.001962   0.067358  -0.010020  -0.000515  -0.000034
    18  H    0.000728  -0.000370  -0.008477   0.001012   0.000428  -0.000002
    19  C   -0.379128  -0.863743   2.052640   0.317817   0.489630  -0.126075
    20  C    0.015620   0.018028  -0.500279   0.184597  -0.014632   0.016149
    21  H    0.000197  -0.000135  -0.003922   0.001705   0.000858   0.000053
    22  S    0.006902   0.094388  -0.040603  -0.111596  -0.065792  -0.063130
    23  C    0.054885   0.168681   0.277174   1.536140  -0.212447  -2.113865
    24  C    0.000247   0.035764  -0.039035  -0.052778  -0.114703  -0.959030
    25  C   -0.000006  -0.004001  -0.000033  -0.000510  -0.010022   0.067361
    26  H    0.000000   0.000049  -0.000002   0.000428   0.001012  -0.008476
    27  C    0.000394  -0.000876   0.004132   0.032577   0.018983  -0.079584
    28  H    0.000000   0.000095  -0.000020  -0.001306   0.000825   0.005033
    29  C    0.002472   0.181032   0.016148  -0.014628   0.184598  -0.500293
    30  H    0.000003   0.000060   0.000053   0.000858   0.001705  -0.003922
    31  C   -0.109948  -1.298477  -0.126071   0.489642   0.317815   2.052586
    32  S    0.005203  -0.072125  -0.063131  -0.065795  -0.111594  -0.040598
    33  O    0.001842   0.001062  -0.014516   0.006859  -0.000759   0.000102
    34  O    0.059239  -0.014317  -0.148842   0.009755   0.000702  -0.003071
    35  H    0.000540   0.000217  -0.013858   0.002150   0.000138   0.000008
    36  H   -0.000075   0.000058  -0.001465   0.000240  -0.000101   0.000000
    37  O   -0.000389   0.001289  -0.003071   0.000705   0.009753  -0.148843
    38  O    0.000017   0.001540   0.000102  -0.000759   0.006859  -0.014514
    39  H    0.000000   0.000069   0.000008   0.000138   0.002150  -0.013857
    40  H    0.000000   0.000011   0.000000  -0.000101   0.000240  -0.001465
              7          8          9         10         11         12
     1  N    0.108410   0.005591  -0.057429  -0.005782   0.000222   0.312508
     2  C    1.803495   0.108411   0.179193  -0.020262   0.011067  -0.014569
     3  C   -0.759877  -0.025490   0.007268   0.055496  -0.007697  -0.038945
     4  C   -5.166465  -0.720281  -0.101967   0.122634  -0.039095   0.059171
     5  C   -0.423268   0.093617   0.122627  -0.101969   0.059171  -0.039093
     6  C   -0.592415  -0.020325   0.055494   0.007267  -0.038945  -0.007697
     7  C   11.551044   0.522386  -0.020261   0.179189  -0.014568   0.011067
     8  N    0.522386   7.374150  -0.005782  -0.057430   0.312508   0.000222
     9  O   -0.020261  -0.005782   8.266943  -0.000021   0.000000  -0.000799
    10  O    0.179189  -0.057430  -0.000021   8.266943  -0.000799   0.000000
    11  H   -0.014568   0.312508   0.000000  -0.000799   0.348980   0.000000
    12  H    0.011067   0.000222  -0.000799   0.000000   0.000000   0.348980
    13  C    0.035763   0.000247   0.000175  -0.012452  -0.000022   0.024718
    14  C    0.168694   0.054886   0.007482  -0.006783   0.000024   0.041042
    15  C   -0.000877   0.000394   0.000378   0.000043   0.000000  -0.003027
    16  H    0.000095   0.000000  -0.000009   0.000000   0.000000  -0.000180
    17  C   -0.004000  -0.000006  -0.000113   0.000047   0.000000  -0.000965
    18  H    0.000049   0.000000   0.000000   0.000000   0.000000   0.000004
    19  C   -1.298485  -0.109948   0.020905   0.000537  -0.001294  -0.055488
    20  C    0.181032   0.002472   0.000402   0.014970   0.000012   0.002543
    21  H    0.000060   0.000003   0.000000  -0.000011   0.000000   0.000000
    22  S   -0.072118   0.005203  -0.002412  -0.022443   0.000691  -0.004896
    23  C   -0.339452   0.104720  -0.006782   0.007482   0.041043   0.000024
    24  C    0.148598   0.094271  -0.012452   0.000175   0.024719  -0.000022
    25  C   -0.001964  -0.005087   0.000047  -0.000113  -0.000966   0.000000
    26  H   -0.000370   0.000728   0.000000   0.000000   0.000004   0.000000
    27  C   -0.028493  -0.009297   0.000043   0.000378  -0.003026   0.000000
    28  H   -0.000216  -0.000297   0.000000  -0.000009  -0.000180   0.000000
    29  C    0.018029   0.015620   0.014970   0.000402   0.002544   0.000012
    30  H   -0.000135   0.000197  -0.000011   0.000000   0.000000   0.000000
    31  C   -0.863734  -0.379122   0.000536   0.020905  -0.055489  -0.001294
    32  S    0.094388   0.006902  -0.022444  -0.002412  -0.004896   0.000692
    33  O    0.001540   0.000017   0.000001  -0.000001   0.000000  -0.000004
    34  O    0.001290  -0.000389  -0.000901   0.000097   0.000000   0.010210
    35  H    0.000069   0.000000   0.000002   0.000000   0.000000   0.000051
    36  H    0.000011   0.000000   0.000000   0.000000   0.000000  -0.000001
    37  O   -0.014318   0.059241   0.000097  -0.000901   0.010210   0.000000
    38  O    0.001062   0.001841  -0.000001   0.000001  -0.000004   0.000000
    39  H    0.000217   0.000540   0.000000   0.000002   0.000051   0.000000
    40  H    0.000058  -0.000075   0.000000   0.000000  -0.000001   0.000000
             13         14         15         16         17         18
     1  N    0.094275   0.104726  -0.009292  -0.000296  -0.005090   0.000728
     2  C    0.148591  -0.339462  -0.028497  -0.000216  -0.001962  -0.000370
     3  C   -0.959044  -2.113979  -0.079587   0.005033   0.067358  -0.008477
     4  C   -0.114713  -0.212462   0.018980   0.000825  -0.010020   0.001012
     5  C   -0.052755   1.536184   0.032586  -0.001306  -0.000515   0.000428
     6  C   -0.039034   0.277186   0.004133  -0.000020  -0.000034  -0.000002
     7  C    0.035763   0.168694  -0.000877   0.000095  -0.004000   0.000049
     8  N    0.000247   0.054886   0.000394   0.000000  -0.000006   0.000000
     9  O    0.000175   0.007482   0.000378  -0.000009  -0.000113   0.000000
    10  O   -0.012452  -0.006783   0.000043   0.000000   0.000047   0.000000
    11  H   -0.000022   0.000024   0.000000   0.000000   0.000000   0.000000
    12  H    0.024718   0.041042  -0.003027  -0.000180  -0.000965   0.000004
    13  C   11.825242  -2.315360  -0.091050  -0.021370  -0.158340   0.072796
    14  C   -2.315360  11.255890  -0.025164   0.034980   0.117224  -0.052503
    15  C   -0.091050  -0.025164   5.218431   0.391200   0.226738  -0.021816
    16  H   -0.021370   0.034980   0.391200   0.525754  -0.026139  -0.001982
    17  C   -0.158340   0.117224   0.226738  -0.026139   5.164178   0.383330
    18  H    0.072796  -0.052503  -0.021816  -0.001982   0.383330   0.548909
    19  C   -1.761019  -0.583182  -0.086142   0.006561   0.065079  -0.018279
    20  C   -1.707995  -1.854100   0.068990  -0.002842  -0.165819  -0.020000
    21  H   -0.016617   0.024860   0.000226   0.000000  -0.000851  -0.000002
    22  S    0.359112  -0.193892   0.003393  -0.000573   0.013979  -0.000152
    23  C   -0.001715  -0.050506  -0.000295   0.000000   0.000037   0.000000
    24  C   -0.000031  -0.001715  -0.000005   0.000000  -0.000001   0.000000
    25  C   -0.000001   0.000037   0.000000   0.000000   0.000000   0.000000
    26  H    0.000000   0.000000   0.000000   0.000000   0.000000   0.000000
    27  C   -0.000005  -0.000295  -0.000002   0.000000   0.000000   0.000000
    28  H    0.000000   0.000000   0.000000   0.000000   0.000000   0.000000
    29  C   -0.000013  -0.000882  -0.000016   0.000000   0.000002   0.000000
    30  H    0.000000   0.000000   0.000000   0.000000   0.000000   0.000000
    31  C   -0.004134  -0.034049  -0.000409   0.000000   0.000277   0.000000
    32  S    0.000605   0.004962  -0.000245  -0.000003   0.000008   0.000000
    33  O    0.240047   0.078559  -0.026309   0.004987   0.078276  -0.039975
    34  O    0.290006   0.039706   0.034528  -0.059022  -0.057397   0.009172
    35  H    0.053293  -0.052863   0.424180  -0.029467  -0.050094   0.003714
    36  H    0.068654  -0.071927  -0.025929   0.000004   0.377949  -0.030053
    37  O    0.000001   0.000408   0.000001   0.000000   0.000000   0.000000
    38  O    0.000000  -0.000001   0.000000   0.000000   0.000000   0.000000
    39  H    0.000000   0.000000   0.000000   0.000000   0.000000   0.000000
    40  H    0.000000   0.000000   0.000000   0.000000   0.000000   0.000000
             19         20         21         22         23         24
     1  N   -0.379128   0.015620   0.000197   0.006902   0.054885   0.000247
     2  C   -0.863743   0.018028  -0.000135   0.094388   0.168681   0.035764
     3  C    2.052640  -0.500279  -0.003922  -0.040603   0.277174  -0.039035
     4  C    0.317817   0.184597   0.001705  -0.111596   1.536140  -0.052778
     5  C    0.489630  -0.014632   0.000858  -0.065792  -0.212447  -0.114703
     6  C   -0.126075   0.016149   0.000053  -0.063130  -2.113865  -0.959030
     7  C   -1.298485   0.181032   0.000060  -0.072118  -0.339452   0.148598
     8  N   -0.109948   0.002472   0.000003   0.005203   0.104720   0.094271
     9  O    0.020905   0.000402   0.000000  -0.002412  -0.006782  -0.012452
    10  O    0.000537   0.014970  -0.000011  -0.022443   0.007482   0.000175
    11  H   -0.001294   0.000012   0.000000   0.000691   0.041043   0.024719
    12  H   -0.055488   0.002543   0.000000  -0.004896   0.000024  -0.000022
    13  C   -1.761019  -1.707995  -0.016617   0.359112  -0.001715  -0.000031
    14  C   -0.583182  -1.854100   0.024860  -0.193892  -0.050506  -0.001715
    15  C   -0.086142   0.068990   0.000226   0.003393  -0.000295  -0.000005
    16  H    0.006561  -0.002842   0.000000  -0.000573   0.000000   0.000000
    17  C    0.065079  -0.165819  -0.000851   0.013979   0.000037  -0.000001
    18  H   -0.018279  -0.020000  -0.000002  -0.000152   0.000000   0.000000
    19  C    9.344584  -0.695056   0.007256   0.113494  -0.034050  -0.004134
    20  C   -0.695056  10.921461   0.305243  -0.172962  -0.000882  -0.000013
    21  H    0.007256   0.305243   0.464600   0.015537   0.000000   0.000000
    22  S    0.113494  -0.172962   0.015537  15.884478   0.004962   0.000605
    23  C   -0.034050  -0.000882   0.000000   0.004962  11.255898  -2.315443
    24  C   -0.004134  -0.000013   0.000000   0.000605  -2.315443  11.825220
    25  C    0.000277   0.000002   0.000000   0.000008   0.117288  -0.158392
    26  H    0.000000   0.000000   0.000000   0.000000  -0.052504   0.072793
    27  C   -0.000409  -0.000016   0.000000  -0.000245  -0.025212  -0.091019
    28  H    0.000000   0.000000   0.000000  -0.000003   0.034980  -0.021370
    29  C   -0.008170   0.000003   0.000000  -0.000136  -1.854168  -1.707900
    30  H    0.000001   0.000000   0.000000   0.000000   0.024859  -0.016615
    31  C    0.260259  -0.008170   0.000001  -0.006926  -0.583120  -1.760990
    32  S   -0.006926  -0.000136   0.000000   0.000010  -0.193894   0.359109
    33  O    0.025897  -0.414432  -0.002671   0.018675  -0.000001   0.000000
    34  O   -0.263131  -0.009585  -0.000412   0.023131   0.000408   0.000001
    35  H   -0.004590  -0.008508  -0.000002   0.000106   0.000000   0.000000
    36  H    0.001622   0.037689  -0.000004  -0.000548   0.000000   0.000000
    37  O    0.000111   0.000004   0.000000  -0.000132   0.039712   0.290000
    38  O   -0.000020   0.000000   0.000000   0.000000   0.078556   0.240049
    39  H   -0.000004   0.000000   0.000000   0.000000  -0.052861   0.053292
    40  H    0.000000   0.000000   0.000000   0.000000  -0.071930   0.068657
             25         26         27         28         29         30
     1  N   -0.000006   0.000000   0.000394   0.000000   0.002472   0.000003
     2  C   -0.004001   0.000049  -0.000876   0.000095   0.181032   0.000060
     3  C   -0.000033  -0.000002   0.004132  -0.000020   0.016148   0.000053
     4  C   -0.000510   0.000428   0.032577  -0.001306  -0.014628   0.000858
     5  C   -0.010022   0.001012   0.018983   0.000825   0.184598   0.001705
     6  C    0.067361  -0.008476  -0.079584   0.005033  -0.500293  -0.003922
     7  C   -0.001964  -0.000370  -0.028493  -0.000216   0.018029  -0.000135
     8  N   -0.005087   0.000728  -0.009297  -0.000297   0.015620   0.000197
     9  O    0.000047   0.000000   0.000043   0.000000   0.014970  -0.000011
    10  O   -0.000113   0.000000   0.000378  -0.000009   0.000402   0.000000
    11  H   -0.000966   0.000004  -0.003026  -0.000180   0.002544   0.000000
    12  H    0.000000   0.000000   0.000000   0.000000   0.000012   0.000000
    13  C   -0.000001   0.000000  -0.000005   0.000000  -0.000013   0.000000
    14  C    0.000037   0.000000  -0.000295   0.000000  -0.000882   0.000000
    15  C    0.000000   0.000000  -0.000002   0.000000  -0.000016   0.000000
    16  H    0.000000   0.000000   0.000000   0.000000   0.000000   0.000000
    17  C    0.000000   0.000000   0.000000   0.000000   0.000002   0.000000
    18  H    0.000000   0.000000   0.000000   0.000000   0.000000   0.000000
    19  C    0.000277   0.000000  -0.000409   0.000000  -0.008170   0.000001
    20  C    0.000002   0.000000  -0.000016   0.000000   0.000003   0.000000
    21  H    0.000000   0.000000   0.000000   0.000000   0.000000   0.000000
    22  S    0.000008   0.000000  -0.000245  -0.000003  -0.000136   0.000000
    23  C    0.117288  -0.052504  -0.025212   0.034980  -1.854168   0.024859
    24  C   -0.158392   0.072793  -0.091019  -0.021370  -1.707900  -0.016615
    25  C    5.164198   0.383329   0.226730  -0.026140  -0.165843  -0.000851
    26  H    0.383329   0.548910  -0.021817  -0.001982  -0.019996  -0.000002
    27  C    0.226730  -0.021817   5.218433   0.391201   0.069008   0.000226
    28  H   -0.026140  -0.001982   0.391201   0.525755  -0.002842   0.000000
    29  C   -0.165843  -0.019996   0.069008  -0.002842  10.921432   0.305242
    30  H   -0.000851  -0.000002   0.000226   0.000000   0.305242   0.464600
    31  C    0.065078  -0.018277  -0.086134   0.006561  -0.695061   0.007256
    32  S    0.013978  -0.000152   0.003393  -0.000573  -0.172953   0.015537
    33  O    0.000000   0.000000   0.000000   0.000000   0.000000   0.000000
    34  O    0.000000   0.000000   0.000001   0.000000   0.000004   0.000000
    35  H    0.000000   0.000000   0.000000   0.000000   0.000000   0.000000
    36  H    0.000000   0.000000   0.000000   0.000000   0.000000   0.000000
    37  O   -0.057396   0.009171   0.034522  -0.059023  -0.009580  -0.000412
    38  O    0.078277  -0.039976  -0.026310   0.004987  -0.414431  -0.002671
    39  H   -0.050093   0.003714   0.424180  -0.029467  -0.008506  -0.000002
    40  H    0.377947  -0.030053  -0.025927   0.000004   0.037689  -0.000004
             31         32         33         34         35         36
     1  N   -0.109948   0.005203   0.001842   0.059239   0.000540  -0.000075
     2  C   -1.298477  -0.072125   0.001062  -0.014317   0.000217   0.000058
     3  C   -0.126071  -0.063131  -0.014516  -0.148842  -0.013858  -0.001465
     4  C    0.489642  -0.065795   0.006859   0.009755   0.002150   0.000240
     5  C    0.317815  -0.111594  -0.000759   0.000702   0.000138  -0.000101
     6  C    2.052586  -0.040598   0.000102  -0.003071   0.000008   0.000000
     7  C   -0.863734   0.094388   0.001540   0.001290   0.000069   0.000011
     8  N   -0.379122   0.006902   0.000017  -0.000389   0.000000   0.000000
     9  O    0.000536  -0.022444   0.000001  -0.000901   0.000002   0.000000
    10  O    0.020905  -0.002412  -0.000001   0.000097   0.000000   0.000000
    11  H   -0.055489  -0.004896   0.000000   0.000000   0.000000   0.000000
[...]
 0.09263575,0.04361593,0.02558404,-0.00901838,0.01171557,-0.00006190,0.
 00005820,-0.00020412,-0.00002518,0.00012349,0.00009148,0.00001327,0.00
 001958,-0.00000417,-0.00006229,-0.00000066,-0.00005640,0.00000361,-0.0
 0000202,0.00000493,-0.00000052,-0.00000103,0.00000423,-0.00000021,0.00
 000082,0.00000071,0.00000003,-0.00000017,-0.00000014,0.00000073,-0.000
 00014,0.00000068,-0.00000011,0.00000019,-0.00000010,-0.00000407,0.0000
 0010,-0.00000193,0.,0.00000034,-0.00000021,-0.00000679,0.00000132,-0.0
 0000129,0.00000191,0.00000057,-0.00000194,-0.00171483,0.00232509,-0.00
 076676,-0.00623452,-0.00055536,-0.00052827,0.00064025,0.00044309,-0.00
 047649,-0.09247134,0.09105210,0.00002703,-0.00003545,0.00011462,-0.000
 05573,-0.00000188,0.00001024,0.00009199,0.00008922,-0.00028198,0.00004
 997,-0.00000581,0.00003499,-0.00000398,-0.00001272,0.00002417,0.000042
 90,-0.00000754,0.00003021,0.00004225,0.00001157,-0.00004967,-0.0000094
 3,-0.00000114,0.00000387,-0.00000265,-0.00000572,0.00002474,-0.0000579
 5,-0.00000116,0.00000105,0.00000294,-0.00000093,0.00000425,-0.00018565
 ,0.00000989,-0.00000241,0.00313908,0.00079123,-0.00481724,0.00073030,0
 .00072248,-0.00259711,0.00294490,-0.00583547,0.00512508,-0.00041196,-0
 .00054814,0.00006973,-0.08350961,0.03924726,-0.08576621,0.00652654,-0.
 00216750,0.00549953,-0.00017125,-0.00011483,0.00027875,-0.00166353,0.0
 0001115,-0.00077152,-0.00000507,-0.00000118,-0.00000181,-0.00014893,0.
 00008985,-0.00022636,0.00002403,-0.00000919,0.00003757,0.00001017,-0.0
 0001018,0.00003019,-0.00000070,0.00000125,0.00000780,0.00000116,-0.000
 00062,-0.00000103,0.00001218,-0.00000512,0.00000879,-0.00000025,0.0000
 0031,-0.00000084,-0.00001634,0.00000183,-0.00000817,0.00000141,0.00000
 052,-0.00000146,-0.00004292,0.00000490,-0.00000844,0.00000442,0.000003
 57,-0.00001457,-0.03106843,0.01152501,-0.02909024,0.00450142,0.0011815
 8,0.00267020,-0.00030596,0.00013770,0.00016211,0.09953286,-0.04507835,
 0.10955023,-0.00034147,0.00012500,-0.00045662,-0.00031190,-0.00033092,
 0.00122157,0.00073812,-0.00002914,-0.00004521,-0.00070268,0.00025571,-
 0.00093545,-0.00170236,0.00053376,-0.00121192,0.00105459,-0.00153353,0
 .00476840,0.00264654,0.00069770,-0.00229518,-0.00729058,0.00044158,-0.
 00081808,0.00042118,0.00015476,-0.00057733,-0.00065184,-0.00017606,0.0
 0068404,0.00036551,0.00022009,-0.00193824,0.00005356,-0.00001617,0.000
 05871,0.00020580,-0.00012328,0.00034891,0.00019353,-0.00010509,0.00048
 337,0.00018543,-0.00008222,0.00013276,-0.00000280,0.00000346,-0.000013
 12,-0.00001481,0.00001451,0.00013146,0.00001995,-0.00000900,-0.0000152
 1,-0.00040793,0.00004634,-0.00011477,-0.00013182,0.00001794,-0.0000935
 8,0.00001661,0.00000704,-0.00002208,0.00009106,0.00003995,-0.00015728,
 -0.11975249,0.00035272,0.02592267,-0.00019846,-0.00840814,0.03826684,-
 0.04632534,0.01705245,-0.02668072,0.00275549,0.00085964,0.00015711,-0.
 14238946,0.02487294,-0.00649158,-0.00088575,0.00126919,-0.00322043,-0.
 00771192,0.00065556,-0.00061784,0.00058841,-0.00038194,0.00146322,0.01
 373390,0.00795214,-0.03046922,-0.00089386,0.00013162,-0.00172492,-0.00
 025672,0.00008009,-0.00026435,-0.00011731,0.00011045,-0.00043976,-0.00
 003195,0.00001315,0.00000005,-0.00001151,-0.00000015,-0.00000697,0.318
 86218,-0.00007951,-0.00004837,-0.00005898,-0.00017498,0.00021070,-0.00
 066278,-0.00089430,0.00017625,-0.00047037,0.00070480,-0.00019063,0.000
 09112,0.00046060,-0.00016442,0.00086621,-0.00455168,-0.00159994,-0.000
 12436,0.00001859,0.00045083,0.00058704,0.00171078,0.00097238,-0.001654
 59,-0.00007193,-0.00017119,0.00053626,0.00001569,0.00017183,-0.0003470
 3,0.00072303,-0.00203745,0.00063233,-0.00003992,0.00001533,-0.00005500
 ,-0.00016185,0.00018921,-0.00059468,-0.00047432,0.00015857,-0.00073204
 ,-0.00022381,0.00008902,-0.00015578,0.00000510,-0.00000647,0.00001489,
 0.00000798,-0.00002641,-0.00013112,-0.00001978,0.00001086,0.00001877,0
 .00088461,-0.00007296,0.00013020,0.00039462,-0.00002447,0.00017920,-0.
 00002795,-0.00001403,0.00003181,-0.00012722,-0.00010931,0.00029521,-0.
 01047133,-0.05966162,0.07873905,-0.00218410,0.00334023,0.01546707,-0.0
 1036220,0.00684629,-0.00561634,0.00067246,0.00248861,-0.00184732,0.034
 44473,-0.07485818,0.01353514,0.00431281,-0.00059101,0.00408938,-0.0010
 2706,0.00560886,-0.00252225,0.00012022,-0.00081900,-0.00001719,0.00286
 597,-0.00068084,0.01245120,0.00145457,0.00213856,0.00439115,0.00026757
 ,-0.00008499,0.00027993,0.00011059,-0.00012784,0.00060680,0.00004183,-
 0.00001694,0.00000203,0.00001277,0.00000054,0.00000760,-0.04857536,0.1
 2648603,0.00078131,-0.00006420,0.00010170,-0.00006766,-0.00094514,0.00
 361888,0.00368301,-0.00066993,0.00238600,-0.00244946,0.00006713,-0.000
 35492,-0.00241081,0.00107574,-0.00409972,0.02148409,0.00022952,-0.0039
 2368,-0.00182068,0.00043251,-0.00088744,-0.00239568,-0.00206127,0.0074
 5796,0.00104924,0.00073726,-0.00273179,0.00042126,-0.00032145,0.001145
 99,-0.00516748,0.00096692,-0.00366305,0.00014466,-0.00005879,0.0002484
 3,0.00068857,-0.00086033,0.00252815,0.00201809,-0.00076911,0.00313329,
 0.00094857,-0.00039145,0.00066534,-0.00002479,0.00002388,-0.00006440,-
 0.00003866,0.00009149,0.00054502,0.00008521,-0.00004253,-0.00007673,-0
 .00374793,0.00031478,-0.00058823,-0.00171428,0.00018180,-0.00073827,0.
 00012091,0.00003899,-0.00013759,0.00052798,0.00034635,-0.00130476,0.06
 553181,0.06790548,-0.28320942,0.00527337,0.01870496,-0.05207569,-0.004
 11495,0.00331983,-0.00972330,0.00063958,0.00008517,0.00167619,-0.02645
 215,0.02084676,-0.08054909,-0.03853327,0.01609913,-0.01650893,0.004384
 92,-0.00241311,0.01500335,-0.00027459,-0.00005129,-0.00054540,-0.02322
 459,0.01268034,-0.03485933,-0.00405888,0.00471975,-0.01243464,-0.00111
 756,0.00038446,-0.00117287,-0.00044005,0.00060700,-0.00261411,-0.00017
 828,0.00007587,-0.00000781,-0.00005534,-0.00000363,-0.00003239,0.01137
 525,-0.13743841,0.45434892,-0.00024347,0.00010045,-0.00033311,0.000323
 17,-0.00014500,0.00045666,0.00163660,-0.00026467,0.00088574,-0.0008923
 3,0.00010854,-0.00040445,-0.00026979,-0.00009024,-0.00010079,0.0022237
 7,0.00117632,-0.00384003,0.00077523,0.00014601,-0.00050075,-0.00100214
 ,-0.00023051,0.00108169,-0.00024678,0.00018300,-0.00054199,-0.00050391
 ,-0.00020634,0.00075548,-0.00050044,0.00009511,-0.00035469,0.00009360,
 -0.00003613,0.00014234,0.00039221,-0.00035011,0.00101390,0.00074791,-0
 .00030672,0.00128981,0.00044264,-0.00018857,0.00031109,-0.00000759,0.0
 0000974,-0.00002969,-0.00002368,0.00003883,0.00027521,0.00004313,-0.00
 001988,-0.00003561,-0.00142457,0.00014172,-0.00029480,-0.00054370,0.00
 006440,-0.00028317,0.00004863,0.00001712,-0.00005753,0.00020295,0.0001
 2904,-0.00048851,-0.04497676,0.01141865,-0.03572933,-0.26486899,0.0320
 5459,-0.06345626,-0.08796611,0.00270885,0.01219865,0.00234513,0.000364
 66,0.00412838,-0.00904391,0.00051114,0.03116142,-0.00366943,-0.0034183
 6,0.00050377,0.00261295,0.00386612,-0.01498240,-0.00035167,-0.00004551
 ,-0.00006775,-0.00268680,-0.00129987,0.00697794,-0.00403191,-0.0005510
 8,-0.00257225,-0.00056113,0.00018297,-0.00057758,-0.00025674,0.0002676
 9,-0.00111757,-0.00007877,0.00003366,-0.00000257,-0.00002645,-0.000000
 94,-0.00001519,0.01056988,-0.00028158,0.00638478,0.39081998,-0.0000492
 3,-0.00004462,0.00017798,0.00011035,0.00008063,-0.00018252,-0.00058544
 ,0.00014558,-0.00039681,0.00025021,-0.00001175,-0.00001247,-0.00021608
 ,-0.00053757,0.00003110,-0.00132076,0.00021283,0.00127639,-0.00020934,
 -0.00013389,0.00020572,0.00055559,0.00027265,-0.00065225,-0.00004515,-
 0.00015871,0.00021780,0.00017134,0.00010841,-0.00030629,0.00026272,-0.
 00006117,0.00016709,-0.00003384,0.00001066,-0.00004585,-0.00013107,0.0
 0011300,-0.00033331,-0.00024553,0.00010327,-0.00043741,-0.00014560,0.0
 0005829,-0.00010297,0.00000323,-0.00000394,0.00000998,0.00000839,-0.00
 001611,-0.00009286,-0.00001390,0.00000738,0.00001180,0.00046048,-0.000
 04405,0.00010396,0.00018546,-0.00001712,0.00009344,-0.00001607,-0.0000
 0751,0.00001894,-0.00007142,-0.00004216,0.00015560,-0.00282019,0.00328
 903,0.00419814,0.03427821,-0.04215816,0.01407878,0.00554940,-0.0609927
 8,-0.00977140,0.00374563,0.00684477,-0.03118414,0.00049756,0.00299069,
 0.02582356,-0.00495033,-0.00103128,0.00070377,0.01027129,0.00225709,0.
 01093849,-0.00012031,-0.00292936,-0.00145823,0.00048089,0.00441116,0.0
 0193047,0.00051218,0.00426635,0.00149499,0.00018301,-0.00005755,0.0001
 9127,0.00008005,-0.00008508,0.00038463,0.00002656,-0.00001077,0.000001
 12,0.00000855,0.00000016,0.00000510,-0.00013568,0.00042704,-0.00831222
 ,-0.04535203,0.07822591,-0.00022127,0.00006309,-0.00020221,0.00046915,
 -0.00003456,0.00010161,0.00179377,-0.00026280,0.00090373,-0.00076025,0
 .00003038,-0.00010563,0.00028965,0.00006040,-0.00062576,0.00436691,0.0
 0078543,-0.00254535,0.00071819,0.00017542,-0.00070405,-0.00172896,-0.0
 0042848,0.00180906,-0.00058187,0.00012917,-0.00051390,-0.00051019,-0.0
 0025088,0.00097274,-0.00069915,0.00010727,-0.00058695,0.00011071,-0.00
 003904,0.00013911,0.00038058,-0.00038163,0.00111373,0.00085396,-0.0003
 2977,0.00136727,0.00046066,-0.00019735,0.00032140,-0.00000832,0.000010
 68,-0.00003057,-0.00002073,0.00004093,0.00027424,0.00004410,-0.0000202
 0,-0.00003736,-0.00154579,0.00015023,-0.00029843,-0.00062381,0.0000758
 4,-0.00031927,0.00005205,0.00001795,-0.00006528,0.00022200,0.00013909,
 -0.00053304,0.00412582,-0.00012064,-0.00539474,-0.11018868,0.02579749,
 -0.14049163,0.04025038,-0.01523227,-0.17802390,0.00632754,-0.00446513,
 -0.03376241,0.00419690,0.00433909,-0.04213379,0.00561109,0.00301387,0.
 00132779,-0.04307172,0.00959953,-0.02788271,0.00080225,-0.00135800,0.0
 0230143,0.00051219,0.00093319,0.00034208,-0.00308058,0.00247010,-0.004
 83200,-0.00057744,0.00019112,-0.00059036,-0.00026451,0.00027996,-0.001
 17255,-0.00008252,0.00003597,-0.00000377,-0.00002712,-0.00000133,-0.00
 001616,-0.00051590,-0.00318099,0.01616437,0.08910242,-0.02080125,0.440
 25166,0.00003214,0.00000682,-0.00003058,-0.00004345,-0.00007579,0.0002
 9675,0.00026132,-0.00003454,0.00015502,-0.00020433,0.00000686,-0.00010
 431,-0.00022629,0.00014990,-0.00027512,0.00114966,0.00008588,-0.000015
 80,0.00011976,0.00007907,-0.00014085,-0.00024072,-0.00020590,0.0002030
 2,0.00009638,0.00005144,-0.00020307,-0.00003739,-0.00005567,0.00011348
 ,0.00022951,0.00026182,-0.00007835,0.00001057,-0.00000447,0.00001842,0
 .00004860,-0.00005826,0.00017074,0.00013361,-0.00005063,0.00021341,0.0
 0006531,-0.00002676,0.00004602,-0.00000171,0.00000176,-0.00000453,-0.0
 0000305,0.00000731,0.00003899,0.00000593,-0.00000313,-0.00000551,-0.00
 024861,0.00001985,-0.00004495,-0.00011317,0.00001040,-0.00005120,0.000
 00794,0.00000350,-0.00000943,0.00003753,0.00002639,-0.00008508,-0.0010
 1786,-0.00061242,0.00697208,0.00000507,0.00041426,-0.00127665,0.003273
 51,-0.02915076,-0.00903954,-0.00417301,-0.00276033,0.00264701,-0.04753
 963,0.02222342,0.01026400,0.00120897,0.00624153,0.00266987,0.00025043,
 -0.00004549,0.00077030,0.00000647,-0.00002697,-0.00000918,-0.00140243,
 -0.00017106,-0.00102114,-0.00024613,-0.00005703,-0.00064995,-0.0000787
 4,0.00002655,-0.00008252,-0.00003196,0.00004183,-0.00017826,-0.0000123
 9,0.00000506,-0.00000059,-0.00000386,-0.00000033,-0.00000229,-0.017549
 20,0.03325006,-0.00667562,0.00215200,0.00213314,0.00001558,0.06302976,
 -0.00002192,-0.00000491,0.00002355,0.00004598,0.00003935,-0.00016219,-
 0.00010854,0.00001764,-0.00007018,0.00008391,-0.00002245,0.00004662,0.
 00012430,-0.00004487,0.00015277,-0.00047294,-0.00002272,-0.00007513,-0
 .00004975,-0.00002227,0.00005122,0.00006931,0.00007838,-0.00002908,-0.
 00006768,-0.00002323,0.00010349,0.00001080,0.00001742,-0.00003254,-0.0
 0015047,-0.00008651,0.00002418,-0.00000423,0.00000037,-0.00000865,-0.0
 0002332,0.00002283,-0.00006758,-0.00005023,0.00002164,-0.00008847,-0.0
 0002756,0.00001040,-0.00001988,0.00000072,-0.00000084,0.00000195,0.000
 00152,-0.00000335,-0.00001769,-0.00000247,0.00000158,0.00000227,0.0000
 9933,-0.00000843,0.00001739,0.00004374,-0.00000347,0.00001955,-0.00000
 328,-0.00000162,0.00000357,-0.00001535,-0.00001045,0.00003413,0.000580
 42,0.00035075,-0.00273127,0.00033022,-0.00072391,0.00095943,-0.0002798
 9,-0.01693863,-0.00651128,-0.00270885,-0.00013380,0.00079603,0.0244443
 5,-0.29238956,-0.07063876,-0.00087010,0.00065442,-0.00045710,0.0000310
 7,-0.00002261,-0.00006349,-0.00001238,-0.00001571,0.00001000,0.0005335
 4,-0.00012742,0.00050988,-0.00007968,-0.00000113,0.00018046,0.00003369
 ,-0.00001078,0.00003601,0.00001315,-0.00001696,0.00007588,0.00000508,-
 0.00000197,0.00000031,0.00000163,0.00000003,0.00000093,0.01023338,-0.0
 0791968,0.00499604,0.00088379,0.00219362,-0.00057506,-0.03234755,0.314
 70576,0.00000856,0.00001054,-0.00002360,-0.00005048,-0.00001391,0.0000
 5624,0.00000269,-0.00000198,0.00000975,-0.00000641,0.00000470,-0.00003
 442,-0.00005187,0.00002588,-0.00002805,0.00005235,0.00009561,0.0001212
 3,0.00006752,-0.00000476,-0.00001758,-0.00003142,-0.00002088,-0.000033
 92,0.00003990,0.00000490,-0.00002995,-0.00001444,0.00001552,0.00000460
 ,0.00015277,-0.00001064,-0.00001177,0.00000010,-0.00000125,0.00000102,
 0.00000463,-0.00000107,-0.00000152,-0.00000497,-0.00000154,0.00000634,
 0.00000227,-0.00000149,0.00000187,-0.00000027,-0.00000004,-0.00000026,
 -0.00000076,-0.00000038,0.00000213,0.00000009,0.,-0.00000006,0.0000032
 5,0.00000511,-0.00000119,0.00000222,0.00000074,0.00000179,0.00000006,-
 0.00000081,0.00000004,0.00000002,-0.00000288,0.00000107,-0.00107220,0.
 00135109,0.00358278,-0.00085962,-0.00036432,-0.00069182,0.00089634,0.0
 0879062,0.00177422,0.00110087,0.00129427,0.00041605,0.01235474,-0.0760
 2918,-0.07639760,0.00232149,-0.02939767,-0.00536523,0.00009266,-0.0000
 2109,0.00003862,0.00000472,0.00001512,-0.00000703,-0.00025328,-0.00028
 053,-0.00061783,-0.00003668,-0.00017166,0.00002787,-0.00000252,0.00000
 112,-0.00000372,0.00000005,0.00000201,-0.00000780,-0.00000058,0.000000
 30,0.00000006,-0.00000022,-0.00000014,-0.00000011,-0.01038999,0.021475
 27,0.00060977,0.00018513,0.00034494,0.00257189,-0.00430418,0.07336497,
 0.07388403,-0.00000022,0.00000522,-0.00002077,-0.00001610,-0.00002415,
 0.00010206,0.00009028,-0.00001143,0.00004119,-0.00008232,0.00002980,-0
 .00005210,-0.00008213,0.00000650,-0.00010202,0.00020757,-0.00005042,0.
 00013885,0.00013150,0.00001089,-0.00007002,-0.00016192,0.00000449,0.00
 000336,0.00003487,0.00001694,-0.00006213,-0.00003347,-0.00001165,0.000
 04168,0.00020582,-0.00000530,-0.00005052,0.00000415,-0.00000096,0.0000
 0604,0.00001678,-0.00001776,0.00005274,0.00003968,-0.00001650,0.000065
 40,0.00002139,-0.00000891,0.00001493,-0.00000045,0.00000059,-0.0000014
 4,-0.00000097,0.00000227,0.00001261,0.00000200,-0.00000101,-0.00000175
 ,-0.00007637,0.00000589,-0.00001370,-0.00003264,0.00000358,-0.00001583
 ,0.00000243,0.00000105,-0.00000324,0.00001284,0.00000744,-0.00002620,0
 .00007313,-0.00073317,0.00253754,0.00085641,0.00000557,0.00179924,-0.2
 4702617,0.08707333,-0.09696880,-0.00058058,0.00028573,-0.00033209,-0.0
 1727160,0.01195387,-0.01023476,0.00018963,0.00006900,0.00049640,0.0004
 6120,0.00000980,0.00041595,-0.00000573,0.00001547,-0.00000974,-0.00019
 454,0.00011800,-0.00015555,-0.00002038,0.00002049,-0.00006737,-0.00002
 651,0.00000859,-0.00002715,-0.00001149,0.00001279,-0.00005540,-0.00000
 386,0.00000163,-0.00000021,-0.00000123,-0.00000005,-0.00000077,-0.0048
 1954,-0.00273051,-0.00057996,0.00874728,-0.00331228,0.00380301,0.00104
 949,-0.00027371,-0.00021254,0.25830175,-0.00000237,0.00000169,-0.00000
 689,-0.00000703,-0.00000936,0.00002749,0.00001049,-0.00000083,0.000000
 62,-0.00002739,0.00000691,-0.00002169,-0.00003662,0.00000383,-0.000035
 35,0.00002830,-0.00004980,0.00011156,0.00007163,0.00001004,-0.00004748
 ,-0.00012422,0.00002489,-0.00001306,0.00000843,0.00000530,-0.00001651,
 -0.00001657,-0.00000482,0.00001924,0.00017120,-0.00001044,-0.00003496,
 0.00000010,0.00000048,0.00000027,-0.00000049,-0.00000096,0.00000420,0.
 00000358,-0.00000207,0.00000494,0.00000073,-0.00000015,0.00000069,-0.0
 0000011,0.00000020,-0.00000010,-0.00000020,0.00000081,0.00000072,0.000
 00004,-0.00000016,-0.00000015,-0.00000679,0.00000134,-0.00000128,-0.00
 000407,0.00000008,-0.00000187,0.00000003,0.00000033,-0.00000023,0.0000
 0190,0.00000057,-0.00000197,-0.00019400,-0.00063643,0.00122682,-0.0010
 2561,0.00071720,-0.00120101,0.08839265,-0.09263554,0.04361589,0.025584
 05,-0.00901836,0.01171560,-0.01356981,0.00767687,-0.00863635,0.0006598
 8,0.00045232,0.00031915,-0.00002517,0.00012350,0.00009146,0.00001329,0
 .00001958,-0.00000419,-0.00006190,0.00005821,-0.00020411,-0.00006229,-
 0.00000065,-0.00005643,-0.00000093,0.00000016,-0.00000133,-0.00000014,
 0.00000055,-0.00000366,-0.00000033,0.00000003,-0.00000014,-0.00000006,
 -0.00000003,-0.00000005,-0.00623451,-0.00055538,-0.00052826,-0.0017148
 4,0.00232510,-0.00076679,0.00064026,0.00044309,-0.00047648,-0.09247111
 ,0.09105189,-0.00000941,-0.00000112,0.00000390,0.00004210,0.00001148,-
 0.00004942,0.00004295,-0.00000757,0.00003018,-0.00000396,-0.00001257,0
 .00002408,0.00004993,-0.00000590,0.00003494,0.00009207,0.00008924,-0.0
 0028197,-0.00005588,-0.00000197,0.00001049,0.00002707,-0.00003545,0.00
 011462,-0.00005783,-0.00000109,0.00000085,-0.00000253,-0.00000567,0.00
 002454,-0.00018567,0.00000989,-0.00000241,0.00000294,-0.00000093,0.000
 00423,0.00001020,-0.00001020,0.00003025,0.00002404,-0.00000921,0.00003
 765,0.00001219,-0.00000513,0.00000879,-0.00000025,0.00000031,-0.000000
 85,-0.00000069,0.00000125,0.00000780,0.00000116,-0.00000062,-0.0000010
 2,-0.00004299,0.00000493,-0.00000845,-0.00001627,0.00000183,-0.0000081
 8,0.00000142,0.00000052,-0.00000147,0.00000434,0.00000357,-0.00001460,
 0.00073033,0.00072246,-0.00259705,0.00313907,0.00079120,-0.00481721,-0
 .08350978,0.03924723,-0.08576635,0.00652652,-0.00216748,0.00549954,0.0
 0294489,-0.00583547,0.00512508,-0.00041195,-0.00054814,0.00006973,-0.0
 0166349,0.00001117,-0.00077154,-0.00000507,-0.00000118,-0.00000181,-0.
 00017134,-0.00011484,0.00027876,-0.00014896,0.00008987,-0.00022640,-0.
 00001521,0.00000511,-0.00001617,-0.00000695,0.00000760,-0.00003242,-0.
 00000230,0.00000094,-0.00000011,-0.00000076,-0.00000005,-0.00000041,0.
 00450143,0.00118160,0.00267018,-0.03106842,0.01152496,-0.02909029,-0.0
 0030596,0.00013771,0.00016212,0.09953303,-0.04507830,0.10955039||0.000
 00039,0.00000118,-0.00000053,0.00000161,0.00000158,0.00000070,-0.00000
 048,-0.00000048,-0.00000087,0.00000085,-0.00000059,-0.00000042,-0.0000
 0082,0.00000064,0.00000047,0.00000053,0.00000051,0.00000086,-0.0000016
 3,-0.00000183,-0.00000075,-0.00000038,-0.00000110,0.00000054,0.0000005
 5,0.00000332,0.00000084,-0.00000055,-0.00000323,-0.00000083,-0.0000008
 9,-0.00000144,0.00000016,0.00000087,0.00000145,-0.00000018,-0.00000004
 ,-0.00000287,-0.00000126,0.00000053,-0.00000142,-0.00000107,0.00000113
 ,0.00000012,-0.00000120,0.00000150,0.00000115,-0.00000119,0.00000111,-
 0.00000130,-0.00000284,0.00000183,-0.00000069,-0.00000363,0.00000010,-
 0.00000168,-0.00000117,-0.00000019,-0.00000366,-0.00000347,-0.00000042
 ,-0.00000497,-0.00000328,-0.00000071,-0.00000344,-0.00000220,-0.000000
 55,0.00000141,0.00000107,0.00000002,0.00000287,0.00000124,-0.00000112,
 0.00000131,0.00000285,-0.00000183,0.00000069,0.00000363,-0.00000114,-0
 .00000012,0.00000121,-0.00000149,-0.00000115,0.00000118,0.00000019,0.0
 0000366,0.00000350,0.00000041,0.00000497,0.00000328,-0.00000010,0.0000
 0167,0.00000121,0.00000070,0.00000343,0.00000219,0.00000013,-0.0000022
 6,-0.00000333,0.00000035,0.00000020,-0.00000195,-0.00000001,-0.0000002
 5,-0.00000029,0.00000105,-0.00000108,-0.00000248,-0.00000036,-0.000000
 19,0.00000192,-0.00000013,0.00000227,0.00000332,0.00000002,0.00000026,
 0.00000029,-0.00000104,0.00000108,0.00000248|||@


 LIVE PURE, SPEAK TRUE, RIGHT WRONG, FOLLOW THE KING...
 ELSE, WHEREFORE BORN......
           IDYLLS OF THE KING, TENNYSON
 Job cpu time:  0 days  8 hours 14 minutes  1.0 seconds.
 File lengths (MBytes):  RWF=   2717 Int=      0 D2E=      0 Chk=     31 Scr=      1
 Normal termination of Gaussian 09 at Fri Oct 13 19:10:47 2023.
