 Entering Gaussian System, Link 0=g09
 Initial command:
 /apps/software//g09/l1.exe /scratch/nathalia.rosa/83253.cluster.abaxnet/Gau-2950.inp -scrdir=/scratch/nathalia.rosa/83253.cluster.abaxnet/
 Entering Link 1 = /apps/software//g09/l1.exe PID=      2951.
  
 Copyright (c) 1988,1990,1992,1993,1995,1998,2003,2009, Gaussian, Inc.
                  All Rights Reserved.
  
 This is part of the Gaussian(R) 09 program.  It is based on
 the Gaussian(R) 03 system (copyright 2003, Gaussian, Inc.),
 the Gaussian(R) 98 system (copyright 1998, Gaussian, Inc.),
 the Gaussian(R) 94 system (copyright 1995, Gaussian, Inc.),
 the Gaussian 92(TM) system (copyright 1992, Gaussian, Inc.),
 the Gaussian 90(TM) system (copyright 1990, Gaussian, Inc.),
 the Gaussian 88(TM) system (copyright 1988, Gaussian, Inc.),
 the Gaussian 86(TM) system (copyright 1986, Carnegie Mellon
 University), and the Gaussian 82(TM) system (copyright 1983,
 Carnegie Mellon University). Gaussian is a federally registered
 trademark of Gaussian, Inc.
  
 This software contains proprietary and confidential information,
 including trade secrets, belonging to Gaussian, Inc.
  
 This software is provided under written license and may be
 used, copied, transmitted, or stored only in accord with that
 written license.
  
 The following legend is applicable only to US Government
 contracts under FAR:
  
                    RESTRICTED RIGHTS LEGEND
  
 Use, reproduction and disclosure by the US Government is
 subject to restrictions as set forth in subparagraphs (a)
 and (c) of the Commercial Computer Software - Restricted
 Rights clause in FAR 52.227-19.
  
 Gaussian, Inc.
 340 Quinnipiac St., Bldg. 40, Wallingford CT 06492
  
  
 ---------------------------------------------------------------
 Warning -- This program may not be used in any manner that
 competes with the business of Gaussian, Inc. or will provide
 assistance to any competitor of Gaussian, Inc.  The licensee
 of this program is prohibited from giving any competitor of
 Gaussian, Inc. access to this program.  By using this program,
 the user acknowledges that Gaussian, Inc. is engaged in the
 business of creating and licensing software in the field of
 computational chemistry and represents and warrants to the
 licensee that it is not a competitor of Gaussian, Inc. and that
 it will not use this program in any manner prohibited above.
 ---------------------------------------------------------------
  

 Cite this work as:
 Gaussian 09, Revision A.02,
 M. J. Frisch, G. W. Trucks, H. B. Schlegel, G. E. Scuseria, 
 M. A. Robb, J. R. Cheeseman, G. Scalmani, V. Barone, B. Mennucci, 
 G. A. Petersson, H. Nakatsuji, M. Caricato, X. Li, H. P. Hratchian, 
 A. F. Izmaylov, J. Bloino, G. Zheng, J. L. Sonnenberg, M. Hada, 
 M. Ehara, K. Toyota, R. Fukuda, J. Hasegawa, M. Ishida, T. Nakajima, 
 Y. Honda, O. Kitao, H. Nakai, T. Vreven, J. A. Montgomery, Jr., 
 J. E. Peralta, F. Ogliaro, M. Bearpark, J. J. Heyd, E. Brothers, 
 K. N. Kudin, V. N. Staroverov, R. Kobayashi, J. Normand, 
 K. Raghavachari, A. Rendell, J. C. Burant, S. S. Iyengar, J. Tomasi, 
 M. Cossi, N. Rega, J. M. Millam, M. Klene, J. E. Knox, J. B. Cross, 
 V. Bakken, C. Adamo, J. Jaramillo, R. Gomperts, R. E. Stratmann, 
 O. Yazyev, A. J. Austin, R. Cammi, C. Pomelli, J. W. Ochterski, 
 R. L. Martin, K. Morokuma, V. G. Zakrzewski, G. A. Voth, 
 P. Salvador, J. J. Dannenberg, S. Dapprich, A. D. Daniels, 
 O. Farkas, J. B. Foresman, J. V. Ortiz, J. Cioslowski, 
 and D. J. Fox, Gaussian, Inc., Wallingford CT, 2009.
 
 ******************************************
 Gaussian 09:  EM64L-G09RevA.02 11-Jun-2009
                18-Sep-2023 
 ******************************************
 %chk=/home/nathalia.rosa/DPP-SUB/DPP-SUB-9/DPP-SUB-9-OPT-FREQ.chk
 -----------------------------------------------------------
 # opt=tight freq b3lyp/6-31+g(d,p) nosymm geom=connectivity
 -----------------------------------------------------------
 1/7=10,14=-1,18=20,19=15,26=3,38=1,57=2/1,3;
 2/9=110,12=2,15=1,17=6,18=5,40=1/2;
 3/5=1,6=6,7=111,11=2,16=1,25=1,30=1,71=1,74=-5/1,2,3;
 4//1;
 5/5=2,38=5/2;
 6/7=2,8=2,9=2,10=2,28=1/1;
 7/30=1/1,2,3,16;
 1/7=10,14=-1,18=20,19=15/3(2);
 2/9=110,15=1/2;
 99//99;
 2/9=110,15=1/2;
 3/5=1,6=6,7=111,11=2,16=1,25=1,30=1,71=1,74=-5/1,2,3;
 4/5=5,16=3/1;
 5/5=2,38=5/2;
 7/30=1/1,2,3,16;
 1/7=10,14=-1,18=20,19=15/3(-5);
 2/9=110,15=1/2;
 6/7=2,8=2,9=2,10=2,19=2,28=1/1;
 99/9=1/99;
 -------
 Energy:
 -------
 Symbolic Z-matrix:
 Charge =  0 Multiplicity = 1
 N                    -1.34243   1.03199  -2.64445 
 C                     0.0773    0.95925  -2.69181 
 C                    -1.86302   0.64508  -1.40817 
 C                    -0.78224   0.36104  -0.58784 
 C                     0.42184   0.5417   -1.34455 
 C                     1.51324   0.35458  -0.50806 
 C                    -0.41749   0.0804    0.80082 
 N                     1.00432   0.05802   0.75167 
 O                     0.74522   1.20799  -3.69138 
 O                    -1.05764  -0.08541   1.83145 
 H                     1.57611  -0.10544   1.56851 
 H                    -1.88846   1.15028  -3.48664 
 C                    -5.60313   0.78547  -1.47008 
 C                    -4.29893   0.95265  -2.03796 
 C                    -5.28639   1.9388   -3.91985 
 H                    -5.07169   1.93428  -4.99051 
 C                    -6.49039   1.06888  -3.60003 
 H                    -6.32741   0.04237  -3.95236 
 C                    -3.27638   0.61393  -1.16741 
 C                    -5.57609   0.36069  -0.17046 
 H                    -6.41883   0.15572   0.47342 
 S                    -3.94963   0.12772   0.38811 
 C                     3.95063   0.23204   0.16304 
 C                     5.25082   0.38686  -0.39663 
 C                     6.14741   0.30561   1.75196 
 H                     5.98269   1.35395   2.03478 
 C                     4.94635  -0.54217   2.14064 
 H                     4.74633  -0.4739    3.2119 
 C                     5.21639   0.69187  -1.73197 
 H                     6.06062   0.85974  -2.38523 
 C                     2.92293   0.43178  -0.74987 
 S                     3.59669   0.80486  -2.3324 
 O                    -6.7384    1.05428  -2.18203 
 O                    -4.0991    1.43478  -3.28399 
 H                    -5.4606    2.96952  -3.58488 
 H                    -7.39438   1.47243  -4.06045 
 O                     3.75336  -0.0661    1.48478 
 O                     6.39344   0.22193   0.34061 
 H                     5.10989  -1.59125   1.8645 
 H                     7.0524   -0.06125   2.24097 
 

 GradGradGradGradGradGradGradGradGradGradGradGradGradGradGradGradGradGrad
 Berny optimization.
 Initialization pass.
                           ----------------------------
                           !    Initial Parameters    !
                           ! (Angstroms and Degrees)  !
 --------------------------                            --------------------------
 ! Name  Definition              Value          Derivative Info.                !
 --------------------------------------------------------------------------------
 ! R1    R(1,2)                  1.4224         estimate D2E/DX2                !
 ! R2    R(1,3)                  1.3961         estimate D2E/DX2                !
 ! R3    R(1,12)                 1.0107         estimate D2E/DX2                !
 ! R4    R(2,5)                  1.452          estimate D2E/DX2                !
 ! R5    R(2,9)                  1.2277         estimate D2E/DX2                !
 ! R6    R(3,4)                  1.3863         estimate D2E/DX2                !
 ! R7    R(3,19)                 1.4341         estimate D2E/DX2                !
 ! R8    R(4,5)                  1.4335         estimate D2E/DX2                !
 ! R9    R(4,7)                  1.4629         estimate D2E/DX2                !
 ! R10   R(5,6)                  1.3878         estimate D2E/DX2                !
 ! R11   R(6,8)                  1.3906         estimate D2E/DX2                !
 ! R12   R(6,31)                 1.4324         estimate D2E/DX2                !
 ! R13   R(7,8)                  1.4228         estimate D2E/DX2                !
 ! R14   R(7,10)                 1.2245         estimate D2E/DX2                !
 ! R15   R(8,11)                 1.0104         estimate D2E/DX2                !
 ! R16   R(13,14)                1.4323         estimate D2E/DX2                !
 ! R17   R(13,20)                1.3675         estimate D2E/DX2                !
 ! R18   R(13,33)                1.3667         estimate D2E/DX2                !
 ! R19   R(14,19)                1.385          estimate D2E/DX2                !
 ! R20   R(14,34)                1.3509         estimate D2E/DX2                !
 ! R21   R(15,16)                1.092          estimate D2E/DX2                !
 ! R22   R(15,17)                1.5194         estimate D2E/DX2                !
 ! R23   R(15,34)                1.4381         estimate D2E/DX2                !
 ! R24   R(15,35)                1.0977         estimate D2E/DX2                !
 ! R25   R(17,18)                1.0975         estimate D2E/DX2                !
 ! R26   R(17,33)                1.4396         estimate D2E/DX2                !
 ! R27   R(17,36)                1.0918         estimate D2E/DX2                !
 ! R28   R(19,22)                1.7633         estimate D2E/DX2                !
 ! R29   R(20,21)                1.0802         estimate D2E/DX2                !
 ! R30   R(20,22)                1.7354         estimate D2E/DX2                !
 ! R31   R(23,24)                1.424          estimate D2E/DX2                !
 ! R32   R(23,31)                1.3891         estimate D2E/DX2                !
 ! R33   R(23,37)                1.3692         estimate D2E/DX2                !
 ! R34   R(24,29)                1.3702         estimate D2E/DX2                !
 ! R35   R(24,38)                1.3698         estimate D2E/DX2                !
 ! R36   R(25,26)                1.0982         estimate D2E/DX2                !
 ! R37   R(25,27)                1.5206         estimate D2E/DX2                !
 ! R38   R(25,38)                1.4351         estimate D2E/DX2                !
 ! R39   R(25,40)                1.0921         estimate D2E/DX2                !
 ! R40   R(27,28)                1.0919         estimate D2E/DX2                !
 ! R41   R(27,37)                1.4422         estimate D2E/DX2                !
 ! R42   R(27,39)                1.0971         estimate D2E/DX2                !
 ! R43   R(29,30)                1.0806         estimate D2E/DX2                !
 ! R44   R(29,32)                1.7311         estimate D2E/DX2                !
 ! R45   R(31,32)                1.76           estimate D2E/DX2                !
 ! A1    A(2,1,3)              112.7994         estimate D2E/DX2                !
 ! A2    A(2,1,12)             121.1648         estimate D2E/DX2                !
 ! A3    A(3,1,12)             124.6731         estimate D2E/DX2                !
 ! A4    A(1,2,5)              102.748          estimate D2E/DX2                !
 ! A5    A(1,2,9)              124.0418         estimate D2E/DX2                !
 ! A6    A(5,2,9)              133.2096         estimate D2E/DX2                !
 ! A7    A(1,3,4)              106.8631         estimate D2E/DX2                !
 ! A8    A(1,3,19)             121.4796         estimate D2E/DX2                !
 ! A9    A(4,3,19)             131.6504         estimate D2E/DX2                !
 ! A10   A(3,4,5)              108.4606         estimate D2E/DX2                !
 ! A11   A(3,4,7)              142.6941         estimate D2E/DX2                !
 ! A12   A(5,4,7)              108.4099         estimate D2E/DX2                !
 ! A13   A(2,5,4)              109.0703         estimate D2E/DX2                !
 ! A14   A(2,5,6)              141.6924         estimate D2E/DX2                !
 ! A15   A(4,5,6)              108.9896         estimate D2E/DX2                !
 ! A16   A(5,6,8)              106.6763         estimate D2E/DX2                !
 ! A17   A(5,6,31)             131.6804         estimate D2E/DX2                !
 ! A18   A(8,6,31)             121.6407         estimate D2E/DX2                !
 ! A19   A(4,7,8)              102.6724         estimate D2E/DX2                !
 ! A20   A(4,7,10)             133.9917         estimate D2E/DX2                !
 ! A21   A(8,7,10)             123.3215         estimate D2E/DX2                !
 ! A22   A(6,8,7)              113.1811         estimate D2E/DX2                !
 ! A23   A(6,8,11)             124.0378         estimate D2E/DX2                !
 ! A24   A(7,8,11)             122.6915         estimate D2E/DX2                !
 ! A25   A(14,13,20)           113.2695         estimate D2E/DX2                !
 ! A26   A(14,13,33)           121.7945         estimate D2E/DX2                !
 ! A27   A(20,13,33)           124.9284         estimate D2E/DX2                !
 ! A28   A(13,14,19)           113.2362         estimate D2E/DX2                !
 ! A29   A(13,14,34)           122.8243         estimate D2E/DX2                !
 ! A30   A(19,14,34)           123.906          estimate D2E/DX2                !
 ! A31   A(16,15,17)           111.0884         estimate D2E/DX2                !
 ! A32   A(16,15,34)           105.6497         estimate D2E/DX2                !
 ! A33   A(16,15,35)           109.5294         estimate D2E/DX2                !
 ! A34   A(17,15,34)           111.1304         estimate D2E/DX2                !
 ! A35   A(17,15,35)           110.341          estimate D2E/DX2                !
 ! A36   A(34,15,35)           108.9772         estimate D2E/DX2                !
 ! A37   A(15,17,18)           110.5036         estimate D2E/DX2                !
 ! A38   A(15,17,33)           110.4662         estimate D2E/DX2                !
 ! A39   A(15,17,36)           110.837          estimate D2E/DX2                !
 ! A40   A(18,17,33)           109.4096         estimate D2E/DX2                !
 ! A41   A(18,17,36)           109.4691         estimate D2E/DX2                !
 ! A42   A(33,17,36)           106.0502         estimate D2E/DX2                !
 ! A43   A(3,19,14)            128.0836         estimate D2E/DX2                !
 ! A44   A(3,19,22)            122.0317         estimate D2E/DX2                !
 ! A45   A(14,19,22)           109.8789         estimate D2E/DX2                !
 ! A46   A(13,20,21)           127.5887         estimate D2E/DX2                !
 ! A47   A(13,20,22)           111.4755         estimate D2E/DX2                !
 ! A48   A(21,20,22)           120.9222         estimate D2E/DX2                !
 ! A49   A(19,22,20)            92.1141         estimate D2E/DX2                !
 ! A50   A(24,23,31)           113.6781         estimate D2E/DX2                !
 ! A51   A(24,23,37)           122.3185         estimate D2E/DX2                !
 ! A52   A(31,23,37)           123.9964         estimate D2E/DX2                !
 ! A53   A(23,24,29)           112.6003         estimate D2E/DX2                !
 ! A54   A(23,24,38)           122.4812         estimate D2E/DX2                !
 ! A55   A(29,24,38)           124.9111         estimate D2E/DX2                !
 ! A56   A(26,25,27)           110.3589         estimate D2E/DX2                !
 ! A57   A(26,25,38)           109.5503         estimate D2E/DX2                !
 ! A58   A(26,25,40)           109.2469         estimate D2E/DX2                !
 ! A59   A(27,25,38)           110.7489         estimate D2E/DX2                !
 ! A60   A(27,25,40)           110.6571         estimate D2E/DX2                !
 ! A61   A(38,25,40)           106.1827         estimate D2E/DX2                !
 ! A62   A(25,27,28)           111.1368         estimate D2E/DX2                !
 ! A63   A(25,27,37)           110.6755         estimate D2E/DX2                !
 ! A64   A(25,27,39)           110.5516         estimate D2E/DX2                !
 ! A65   A(28,27,37)           105.9015         estimate D2E/DX2                !
 ! A66   A(28,27,39)           109.5144         estimate D2E/DX2                !
 ! A67   A(37,27,39)           108.935          estimate D2E/DX2                !
 ! A68   A(24,29,30)           127.1661         estimate D2E/DX2                !
 ! A69   A(24,29,32)           112.0912         estimate D2E/DX2                !
 ! A70   A(30,29,32)           120.7417         estimate D2E/DX2                !
 ! A71   A(6,31,23)            127.5493         estimate D2E/DX2                !
 ! A72   A(6,31,32)            122.6826         estimate D2E/DX2                !
 ! A73   A(23,31,32)           109.7674         estimate D2E/DX2                !
 ! A74   A(29,32,31)            91.8606         estimate D2E/DX2                !
 ! A75   A(13,33,17)           111.8382         estimate D2E/DX2                !
 ! A76   A(14,34,15)           114.2547         estimate D2E/DX2                !
 ! A77   A(23,37,27)           113.0591         estimate D2E/DX2                !
 ! A78   A(24,38,25)           112.2897         estimate D2E/DX2                !
 ! D1    D(3,1,2,5)             -2.3386         estimate D2E/DX2                !
 ! D2    D(3,1,2,9)            177.4096         estimate D2E/DX2                !
 ! D3    D(12,1,2,5)          -169.6063         estimate D2E/DX2                !
 ! D4    D(12,1,2,9)            10.1418         estimate D2E/DX2                !
 ! D5    D(2,1,3,4)              2.5282         estimate D2E/DX2                !
 ! D6    D(2,1,3,19)          -178.3227         estimate D2E/DX2                !
 ! D7    D(12,1,3,4)           169.2716         estimate D2E/DX2                !
 ! D8    D(12,1,3,19)          -11.5792         estimate D2E/DX2                !
 ! D9    D(1,2,5,4)              1.2743         estimate D2E/DX2                !
 ! D10   D(1,2,5,6)           -171.9561         estimate D2E/DX2                !
 ! D11   D(9,2,5,4)           -178.4394         estimate D2E/DX2                !
 ! D12   D(9,2,5,6)              8.3302         estimate D2E/DX2                !
 ! D13   D(1,3,4,5)             -1.5729         estimate D2E/DX2                !
 ! D14   D(1,3,4,7)            169.349          estimate D2E/DX2                !
 ! D15   D(19,3,4,5)           179.3982         estimate D2E/DX2                !
 ! D16   D(19,3,4,7)            -9.6799         estimate D2E/DX2                !
 ! D17   D(1,3,19,14)           -0.9728         estimate D2E/DX2                !
 ! D18   D(1,3,19,22)          180.0            estimate D2E/DX2                !
 ! D19   D(4,3,19,14)          177.9375         estimate D2E/DX2                !
 ! D20   D(4,3,19,22)           -1.0897         estimate D2E/DX2                !
 ! D21   D(3,4,5,2)              0.1572         estimate D2E/DX2                !
 ! D22   D(3,4,5,6)            175.7252         estimate D2E/DX2                !
 ! D23   D(7,4,5,2)           -174.0585         estimate D2E/DX2                !
 ! D24   D(7,4,5,6)              1.5095         estimate D2E/DX2                !
 ! D25   D(3,4,7,8)           -173.3771         estimate D2E/DX2                !
 ! D26   D(3,4,7,10)             5.2214         estimate D2E/DX2                !
 ! D27   D(5,4,7,8)             -2.4526         estimate D2E/DX2                !
 ! D28   D(5,4,7,10)           176.146          estimate D2E/DX2                !
 ! D29   D(2,5,6,8)            173.3832         estimate D2E/DX2                !
 ! D30   D(2,5,6,31)            -6.0282         estimate D2E/DX2                !
 ! D31   D(4,5,6,8)              0.1495         estimate D2E/DX2                !
 ! D32   D(4,5,6,31)          -179.2618         estimate D2E/DX2                !
 ! D33   D(5,6,8,7)             -1.8586         estimate D2E/DX2                !
 ! D34   D(5,6,8,11)          -178.4902         estimate D2E/DX2                !
 ! D35   D(31,6,8,7)           177.625          estimate D2E/DX2                !
 ! D36   D(31,6,8,11)            0.9934         estimate D2E/DX2                !
 ! D37   D(5,6,31,23)          179.6625         estimate D2E/DX2                !
 ! D38   D(5,6,31,32)           -0.6622         estimate D2E/DX2                !
 ! D39   D(8,6,31,23)            0.3249         estimate D2E/DX2                !
 ! D40   D(8,6,31,32)         -179.9999         estimate D2E/DX2                !
 ! D41   D(4,7,8,6)              2.6781         estimate D2E/DX2                !
 ! D42   D(4,7,8,11)           179.3614         estimate D2E/DX2                !
 ! D43   D(10,7,8,6)          -176.1153         estimate D2E/DX2                !
 ! D44   D(10,7,8,11)            0.568          estimate D2E/DX2                !
 ! D45   D(20,13,14,19)          1.7175         estimate D2E/DX2                !
 ! D46   D(20,13,14,34)       -176.254          estimate D2E/DX2                !
 ! D47   D(33,13,14,19)       -179.2401         estimate D2E/DX2                !
 ! D48   D(33,13,14,34)          2.7885         estimate D2E/DX2                !
 ! D49   D(14,13,20,21)       -179.5862         estimate D2E/DX2                !
 ! D50   D(14,13,20,22)         -0.9374         estimate D2E/DX2                !
 ! D51   D(33,13,20,21)          1.4065         estimate D2E/DX2                !
 ! D52   D(33,13,20,22)       -179.9447         estimate D2E/DX2                !
 ! D53   D(14,13,33,17)         19.3033         estimate D2E/DX2                !
 ! D54   D(20,13,33,17)       -161.7696         estimate D2E/DX2                !
 ! D55   D(13,14,19,3)         179.2232         estimate D2E/DX2                !
 ! D56   D(13,14,19,22)         -1.6538         estimate D2E/DX2                !
 ! D57   D(34,14,19,3)          -2.8308         estimate D2E/DX2                !
 ! D58   D(34,14,19,22)        176.2923         estimate D2E/DX2                !
 ! D59   D(13,14,34,15)          8.2403         estimate D2E/DX2                !
 ! D60   D(19,14,34,15)       -169.5137         estimate D2E/DX2                !
 ! D61   D(16,15,17,18)         57.1645         estimate D2E/DX2                !
 ! D62   D(16,15,17,33)        178.3804         estimate D2E/DX2                !
 ! D63   D(16,15,17,36)        -64.374          estimate D2E/DX2                !
 ! D64   D(34,15,17,18)        -60.158          estimate D2E/DX2                !
 ! D65   D(34,15,17,33)         61.0579         estimate D2E/DX2                !
 ! D66   D(34,15,17,36)        178.3035         estimate D2E/DX2                !
 ! D67   D(35,15,17,18)        178.8381         estimate D2E/DX2                !
 ! D68   D(35,15,17,33)        -59.946          estimate D2E/DX2                !
 ! D69   D(35,15,17,36)         57.2996         estimate D2E/DX2                !
 ! D70   D(16,15,34,14)       -159.2792         estimate D2E/DX2                !
 ! D71   D(17,15,34,14)        -38.6911         estimate D2E/DX2                !
 ! D72   D(35,15,34,14)         83.1109         estimate D2E/DX2                !
 ! D73   D(15,17,33,13)        -49.3936         estimate D2E/DX2                !
 ! D74   D(18,17,33,13)         72.4695         estimate D2E/DX2                !
 ! D75   D(36,17,33,13)       -169.5556         estimate D2E/DX2                !
 ! D76   D(3,19,22,20)        -179.8571         estimate D2E/DX2                !
 ! D77   D(14,19,22,20)          0.9571         estimate D2E/DX2                !
 ! D78   D(13,20,22,19)         -0.0058         estimate D2E/DX2                !
 ! D79   D(21,20,22,19)        178.7461         estimate D2E/DX2                !
 ! D80   D(31,23,24,29)         -0.5187         estimate D2E/DX2                !
 ! D81   D(31,23,24,38)       -179.5721         estimate D2E/DX2                !
 ! D82   D(37,23,24,29)       -179.5896         estimate D2E/DX2                !
 ! D83   D(37,23,24,38)          1.357          estimate D2E/DX2                !
 ! D84   D(24,23,31,6)        -179.8084         estimate D2E/DX2                !
 ! D85   D(24,23,31,32)          0.482          estimate D2E/DX2                !
 ! D86   D(37,23,31,6)          -0.7555         estimate D2E/DX2                !
 ! D87   D(37,23,31,32)        179.535          estimate D2E/DX2                !
 ! D88   D(24,23,37,27)        -15.2848         estimate D2E/DX2                !
 ! D89   D(31,23,37,27)        165.7416         estimate D2E/DX2                !
 ! D90   D(23,24,29,30)        179.9357         estimate D2E/DX2                !
 ! D91   D(23,24,29,32)          0.305          estimate D2E/DX2                !
 ! D92   D(38,24,29,30)         -1.038          estimate D2E/DX2                !
 ! D93   D(38,24,29,32)        179.3313         estimate D2E/DX2                !
 ! D94   D(23,24,38,25)        -18.4487         estimate D2E/DX2                !
 ! D95   D(29,24,38,25)        162.617          estimate D2E/DX2                !
 ! D96   D(26,25,27,28)        -57.856          estimate D2E/DX2                !
 ! D97   D(26,25,27,37)         59.5225         estimate D2E/DX2                !
 ! D98   D(26,25,27,39)       -179.6876         estimate D2E/DX2                !
 ! D99   D(38,25,27,28)       -179.3405         estimate D2E/DX2                !
 ! D100  D(38,25,27,37)        -61.9621         estimate D2E/DX2                !
 ! D101  D(38,25,27,39)         58.8278         estimate D2E/DX2                !
 ! D102  D(40,25,27,28)         63.186          estimate D2E/DX2                !
 ! D103  D(40,25,27,37)       -179.4355         estimate D2E/DX2                !
 ! D104  D(40,25,27,39)        -58.6457         estimate D2E/DX2                !
 ! D105  D(26,25,38,24)        -74.8163         estimate D2E/DX2                !
 ! D106  D(27,25,38,24)         47.1432         estimate D2E/DX2                !
 ! D107  D(40,25,38,24)        167.325          estimate D2E/DX2                !
 ! D108  D(25,27,37,23)         43.9059         estimate D2E/DX2                !
 ! D109  D(28,27,37,23)        164.4542         estimate D2E/DX2                !
 ! D110  D(39,27,37,23)        -77.8395         estimate D2E/DX2                !
 ! D111  D(24,29,32,31)         -0.0269         estimate D2E/DX2                !
 ! D112  D(30,29,32,31)       -179.6845         estimate D2E/DX2                !
 ! D113  D(6,31,32,29)        -179.9864         estimate D2E/DX2                !
 ! D114  D(23,31,32,29)         -0.26           estimate D2E/DX2                !
 --------------------------------------------------------------------------------
 Trust Radius=3.00D-01 FncErr=1.00D-07 GrdErr=1.00D-06
 Number of steps in this run= 240 maximum allowed number of steps= 240.
 GradGradGradGradGradGradGradGradGradGradGradGradGradGradGradGradGradGrad

                          Input orientation:                          
 ---------------------------------------------------------------------
 Center     Atomic      Atomic             Coordinates (Angstroms)
 Number     Number       Type             X           Y           Z
 ---------------------------------------------------------------------
      1          7           0       -1.342432    1.031987   -2.644449
      2          6           0        0.077297    0.959251   -2.691808
      3          6           0       -1.863021    0.645078   -1.408172
      4          6           0       -0.782244    0.361037   -0.587838
      5          6           0        0.421837    0.541700   -1.344548
      6          6           0        1.513236    0.354578   -0.508063
      7          6           0       -0.417489    0.080399    0.800820
      8          7           0        1.004317    0.058023    0.751667
      9          8           0        0.745221    1.207994   -3.691384
     10          8           0       -1.057635   -0.085410    1.831454
     11          1           0        1.576105   -0.105440    1.568509
     12          1           0       -1.888459    1.150276   -3.486643
     13          6           0       -5.603126    0.785466   -1.470077
     14          6           0       -4.298926    0.952653   -2.037960
     15          6           0       -5.286389    1.938798   -3.919853
     16          1           0       -5.071692    1.934281   -4.990505
     17          6           0       -6.490388    1.068879   -3.600029
     18          1           0       -6.327408    0.042367   -3.952356
     19          6           0       -3.276382    0.613925   -1.167412
     20          6           0       -5.576091    0.360688   -0.170456
     21          1           0       -6.418834    0.155720    0.473421
     22         16           0       -3.949631    0.127719    0.388107
     23          6           0        3.950630    0.232044    0.163040
     24          6           0        5.250823    0.386857   -0.396632
     25          6           0        6.147409    0.305614    1.751963
     26          1           0        5.982688    1.353947    2.034775
     27          6           0        4.946351   -0.542172    2.140639
     28          1           0        4.746328   -0.473903    3.211896
     29          6           0        5.216388    0.691868   -1.731967
     30          1           0        6.060622    0.859743   -2.385228
     31          6           0        2.922933    0.431779   -0.749873
     32         16           0        3.596693    0.804860   -2.332403
     33          8           0       -6.738403    1.054279   -2.182033
     34          8           0       -4.099096    1.434784   -3.283990
     35          1           0       -5.460598    2.969521   -3.584876
     36          1           0       -7.394380    1.472430   -4.060449
     37          8           0        3.753360   -0.066104    1.484782
     38          8           0        6.393438    0.221930    0.340605
     39          1           0        5.109891   -1.591248    1.864496
     40          1           0        7.052399   -0.061250    2.240966
 ---------------------------------------------------------------------
                    Distance matrix (angstroms):
                    1          2          3          4          5
     1  N    0.000000
     2  C    1.422380   0.000000
     3  C    1.396099   2.347607   0.000000
     4  C    2.234644   2.350183   1.386256   0.000000
     5  C    2.245611   1.451953   2.288080   1.433548   0.000000
     6  C    3.630133   2.682591   3.506237   2.296875   1.387758
     7  C    3.692007   3.635333   2.699643   1.462934   2.349440
     8  N    4.241396   3.678192   3.637467   2.253418   2.228754
     9  O    2.342082   1.227659   3.511817   3.561247   2.460927
    10  O    4.622055   4.779047   3.417226   2.475506   3.559367
    11  H    5.249820   4.640075   4.609934   3.229434   3.199535
    12  H    1.010657   2.128955   2.139139   3.201512   3.208801
    13  C    4.426447   5.812920   3.743251   4.919288   6.031199
    14  C    3.019103   4.424804   2.534733   3.849665   4.789082
    15  C    4.243084   5.588984   4.438660   5.820565   6.416224
    16  H    4.497277   5.722481   4.979029   6.344915   6.738780
    17  C    5.236023   6.631091   5.137739   6.492861   7.289991
    18  H    5.247852   6.591654   5.173672   6.493872   7.252744
    19  C    2.469125   3.700026   1.434059   2.573049   3.703163
    20  C    4.949257   6.219026   3.924246   4.811982   6.114441
    21  H    6.021529   7.270767   4.953312   5.739301   7.088637
    22  S    4.100193   5.137458   2.801467   3.322536   4.720509
    23  C    6.044701   4.866384   6.036377   4.793804   3.849817
    24  C    6.995705   5.688659   7.190039   6.036151   4.923579
    25  C    8.715146   7.551199   8.617928   7.314221   6.513547
    26  H    8.698056   7.574300   8.597181   7.323133   6.557639
    27  C    8.057533   7.022428   7.769889   6.409148   5.813135
    28  H    8.581228   7.662082   8.141292   6.760193   6.363478
    29  C    6.630718   5.234792   7.086964   6.115723   4.812522
    30  H    7.409593   5.992001   7.986541   7.092541   5.742827
    31  C    4.705636   3.485252   4.835722   3.709393   2.573170
    32  S    4.954182   3.541067   5.539694   4.734509   3.335389
    33  O    5.415795   6.835399   4.953348   6.204666   7.227251
    34  O    2.858400   4.244887   3.023633   4.407230   4.999787
    35  H    4.647336   5.958778   4.804543   6.137868   6.746586
    36  H    6.230981   7.613310   6.189912   7.550799   8.326801
    37  O    6.650071   5.657623   6.357570   5.004988   4.412888
    38  O    8.331292   7.045056   8.450230   7.236834   6.213052
    39  H    8.297254   7.252031   8.020786   6.674025   6.068384
    40  H    9.774233   8.603821   9.659183   8.340389   7.561998
                    6          7          8          9         10
     6  C    0.000000
     7  C    2.348627   0.000000
     8  N    1.390634   1.422831   0.000000
     9  O    3.384036   4.775276   4.596767   0.000000
    10  O    3.503756   1.224535   2.331986   5.951884   0.000000
    11  H    2.127844   2.144365   1.010392   5.484702   2.646909
    12  H    4.590926   4.657331   5.246374   2.642257   5.522621
    13  C    7.194008   5.704816   7.008825   6.739009   5.685070
    14  C    6.039827   4.887234   6.058611   5.314361   5.153243
    15  C    7.770777   7.031685   8.058127   6.080016   7.420062
    16  H    8.120901   7.657541   8.568009   6.004306   8.168901
    17  C    8.609789   7.564698   8.725233   7.237522   7.768410
    18  H    8.569499   7.584277   8.711043   7.172787   7.825553
    19  C    4.841740   3.511674   4.724010   4.785044   3.795406
    20  C    7.097363   5.256721   6.651592   7.285179   4.962166
    21  H    7.995035   6.010741   7.429006   8.353237   5.535779
    22  S    5.540532   3.556487   4.967759   6.312755   3.239184
    23  C    2.531064   4.417038   3.009572   5.107221   5.288393
    24  C    3.739387   5.801514   4.411296   5.641818   6.707015
    25  C    5.156130   6.637265   5.245311   7.721914   7.216085
    26  H    5.238393   6.641298   5.301883   7.761524   7.188827
    27  C    4.427873   5.563586   4.222453   7.397639   6.029268
    28  H    4.997735   5.725866   4.509802   8.154318   5.978506
    29  C    3.914721   6.207211   4.930694   4.908873   7.257100
    30  H    4.945469   7.261143   6.004089   5.484598   8.327263
    31  C    1.432368   3.699532   2.464833   3.741313   4.772385
    32  S    2.805666   5.143500   4.097520   3.184374   6.308174
    33  O    8.448746   7.056898   8.339595   7.635863   7.048269
    34  O    6.353808   5.663414   6.650325   4.866704   6.142413
    35  H    8.058478   7.281092   8.311291   6.451861   7.619404
    36  H    9.654774   8.616652   9.782388   8.152253   8.791798
    37  O    3.027633   4.229095   2.847824   6.120859   4.823508
    38  O    4.955220   6.827925   5.407260   7.009395   7.604971
    39  H    4.727706   5.871775   4.562261   7.599599   6.348781
    40  H    6.197774   7.608765   6.229890   8.751243   8.120402
                   11         12         13         14         15
    11  H    0.000000
    12  H    6.255764   0.000000
    13  C    7.846533   4.242449   0.000000
    14  C    6.974394   2.819236   1.432264   0.000000
    15  C    9.021910   3.515020   2.726151   2.342880   0.000000
    16  H    9.558993   3.606832   3.741071   3.205976   1.091976
    17  C    9.652001   4.604045   2.324705   2.693709   1.519427
    18  H    9.641956   4.598762   2.690444   2.933985   2.163615
    19  C    5.616883   2.755510   2.352609   1.384987   3.656686
    20  C    7.375309   5.021869   1.367546   2.338620   4.078276
    21  H    8.073814   6.098815   2.199806   3.381737   4.874696
    22  S    5.655216   4.506411   2.572844   2.586180   4.860602
    23  C    2.779857   6.946819   9.708120   8.568481  10.242341
    24  C    4.196152   7.816670  10.914183   9.706276  11.218487
    25  C    4.593413   9.629726  12.193723  11.131402  12.867344
    26  H    4.665318   9.616782  12.117683  11.066156  12.758987
    27  C    3.446248   9.013618  11.229041  10.255259  12.148817
    28  H    3.589819   9.567068  11.428827  10.555220  12.543460
    29  C    4.978002   7.332658  10.823088   9.523804  10.800464
    30  H    6.055948   8.030281  11.699831  10.365784  11.501048
    31  C    2.734492   5.581724   8.563730   7.354300   8.928206
    32  S    4.486484   5.615913   9.240165   7.902490   9.094777
    33  O    9.194703   5.023264   1.366747   2.445840   2.431201
    34  O    7.624102   2.238063   2.444177   1.350916   1.438061
    35  H    9.248132   4.009923   3.043482   2.794671   1.097701
    36  H   10.707214   5.545106   3.223435   3.733960   2.163537
    37  O    2.179219   7.617399   9.848868   8.847988  10.721324
    38  O    4.982130   9.170576  12.145522  10.978077  12.550598
    39  H    3.844851   9.226459  11.468953  10.498878  12.409777
    40  H    5.517603  10.687013  13.215562  12.173323  13.935623
                   16         17         18         19         20
    16  H    0.000000
    17  C    2.166804   0.000000
    18  H    2.496781   1.097462   0.000000
    19  C    4.425214   4.056407   4.170294   0.000000
    20  C    5.095438   3.619315   3.868923   2.519268   0.000000
    21  H    5.901912   4.175162   4.428173   3.574534   1.080188
    22  S    5.783784   4.821458   4.949821   1.763321   1.735408
    23  C   10.528957  11.129952  11.072963   7.358372   9.533424
    24  C   11.404057  12.189460  12.116818   8.564980  10.829307
    25  C   13.190211  13.745556  13.719679   9.870443  11.880201
    26  H   13.110708  13.689773  13.751525   9.825071  11.809106
    27  C   12.543812  12.897664  12.828246   8.938294  10.811017
    28  H   13.018151  13.230506  13.199267   9.204650  10.894456
    29  C   10.863069  11.860876  11.773326   8.511871  10.909885
    30  H   11.483489  12.611396  12.513484   9.419296  11.856110
    31  C    9.173577   9.855957   9.796751   6.216029   8.519048
    32  S    9.136849  10.169846  10.084315   6.973724   9.434578
    33  O    3.382284   1.439596   2.080126   3.634413   2.424558
    34  O    2.026730   2.439681   2.711257   2.414657   3.609611
    35  H    1.788509   2.161744   3.074838   4.020418   4.298559
    36  H    2.544246   1.091807   1.787511   5.105350   4.435560
    37  O   11.127104  11.492513  11.454087   7.544127   9.484757
    38  O   12.759393  13.499588  13.426901   9.794549  11.981238
    39  H   12.770475  13.095945  12.935079   9.186122  11.051755
    40  H   14.257276  14.791940  14.744056  10.897551  12.863582
                   21         22         23         24         25
    21  H    0.000000
    22  S    2.470835   0.000000
    23  C   10.374389   7.904155   0.000000
    24  C   11.704329   9.237495   1.423974   0.000000
    25  C   12.632007  10.190288   2.712181   2.329577   0.000000
    26  H   12.556724  10.142293   2.981831   2.717099   1.098234
    27  C   11.508001   9.091678   2.345585   2.719107   1.520641
    28  H   11.513319   9.162720   3.229090   3.743915   2.168428
    29  C   11.854517   9.424907   2.324787   1.370159   3.626811
    30  H   12.822026  10.413088   3.367453   2.198615   4.175038
    31  C    9.425565   6.972775   1.389052   2.354967   4.083178
    32  S   10.421363   8.050261   2.584691   2.580326   4.841223
    33  O    2.821519   3.904022  10.974100  12.139797  13.493739
    34  O    4.597318   3.900648   8.838930   9.841543  11.472868
    35  H    5.030454   5.113067  10.493420  11.470379  13.050827
    36  H    4.820933   5.784825  12.169045  13.209965  14.782613
    37  O   10.224754   7.783080   1.369237   2.446893   2.437423
    38  O   12.813131  10.343607   2.449274   1.369777   1.435084
    39  H   11.743019   9.338603   2.750133   3.007567   2.164993
    40  H   13.588429  11.158560   3.744966   3.225430   1.092117
                   26         27         28         29         30
    26  H    0.000000
    27  C    2.163439   0.000000
    28  H    2.501047   1.091907   0.000000
    29  C    3.900501   4.073432   5.101153   0.000000
    30  H    4.448229   4.867282   5.902015   1.080585   0.000000
    31  C    4.238721   3.660309   4.454284   2.508404   3.564075
    32  S    5.006667   4.862528   5.804838   1.731099   2.465106
    33  O   13.405127  12.560559  12.780018  11.968748  12.802116
    34  O   11.399042  10.731033  11.139171   9.473064  10.215591
    35  H   12.850656  12.386206  12.737136  11.073347  11.774075
    36  H   14.700739  13.957283  14.285377  12.847668  13.572724
    37  O    2.699804   1.442226   2.033521   3.614201   4.599742
    38  O    2.078555   2.432701   3.382524   2.429371   2.819173
    39  H    3.076515   1.097069   1.787771   4.261280   4.997139
    40  H    1.785939   2.162589   2.535932   4.440982   4.820116
                   31         32         33         34         35
    31  C    0.000000
    32  S    1.759984   0.000000
    33  O    9.786726  10.339199   0.000000
    34  O    7.532374   7.779941   2.885314   0.000000
    35  H    9.206572   9.396221   2.696091   2.073557   0.000000
    36  H   10.885303  11.146097   2.033126   3.385735   2.491377
    37  O    2.435401   3.918421  11.170402   9.308862  10.945934
    38  O    3.643842   3.912360  13.397827  11.167003  12.785806
    39  H    3.963628   5.064095  12.796691  10.975847  12.737013
    40  H    5.122566   5.797220  14.525617  12.534715  14.131564
                   36         37         38         39         40
    36  H    0.000000
    37  O   12.545468   0.000000
    38  O   14.527111   2.891732   0.000000
    39  H   14.172081   2.076156   2.693947   0.000000
    40  H   15.835701   3.384597   2.031205   2.501192   0.000000
 Symmetry turned off by external request.
 Stoichiometry    C18H12N2O6S2
 Framework group  C1[X(C18H12N2O6S2)]
 Deg. of freedom   114
 Full point group                 C1      NOp   1
 Rotational constants (GHZ):      0.4435569      0.0698667      0.0606311
 Standard basis: 6-31+G(d,p) (6D, 7F)
 Integral buffers will be    131072 words long.
 Raffenetti 2 integral format.
 Two-electron integral symmetry is turned off.
   600 basis functions,  1028 primitive gaussians,   600 cartesian basis functions
   107 alpha electrons      107 beta electrons
       nuclear repulsion energy      2837.8413466640 Hartrees.
 NAtoms=   40 NActive=   40 NUniq=   40 SFac= 7.50D-01 NAtFMM=   80 NAOKFM=F Big=F
 One-electron integrals computed using PRISM.
 NBasis=   600 RedAO= T  NBF=   600
 NBsUse=   594 1.00D-06 NBFU=   594
 Harris functional with IExCor=  402 diagonalized for initial guess.
 ExpMin= 4.05D-02 ExpMax= 2.19D+04 ExpMxC= 3.30D+03 IAcc=2 IRadAn=         0 AccDes= 0.00D+00
 HarFok:  IExCor=  402 AccDes= 0.00D+00 IRadAn=         0 IDoV= 1
 ScaDFX=  1.000000  1.000000  1.000000  1.000000
 FoFCou: FMM=F IPFlag=           0 FMFlag=      100000 FMFlg1=           0
         NFxFlg=           0 DoJE=T BraDBF=F KetDBF=T FulRan=T
         Omega=  0.000000  0.000000  1.000000  0.000000  0.000000 ICntrl=     500 IOpCl=  0
         NMat0=    1 NMatS0=    1 NMatT0=    0 NMatD0=    1 NMtDS0=    0 NMtDT0=    0
         I1Cent=           4 NGrid=           0.
 Symmetry not used in FoFCou.
 Requested convergence on RMS density matrix=1.00D-08 within 128 cycles.
 Requested convergence on MAX density matrix=1.00D-06.
 Requested convergence on             energy=1.00D-06.
 No special actions if energy rises.
 SCF Done:  E(RB3LYP) =  -2050.37594652     A.U. after   16 cycles
             Convg  =    0.4582D-08             -V/T =  2.0069

 **********************************************************************

            Population analysis using the SCF density.

 **********************************************************************

 Alpha  occ. eigenvalues --  -88.92625 -88.92456 -19.22118 -19.22008 -19.20782
 Alpha  occ. eigenvalues --  -19.20782 -19.12551 -19.12463 -14.37719 -14.37674
 Alpha  occ. eigenvalues --  -10.29525 -10.29306 -10.27911 -10.27813 -10.27692
 Alpha  occ. eigenvalues --  -10.27648 -10.27610 -10.27483 -10.26924 -10.26895
 Alpha  occ. eigenvalues --  -10.26686 -10.26624 -10.24240 -10.24108 -10.22938
 Alpha  occ. eigenvalues --  -10.22938 -10.18951 -10.18775  -7.98381  -7.98220
 Alpha  occ. eigenvalues --   -5.94838  -5.94681  -5.94464  -5.94307  -5.94040
 Alpha  occ. eigenvalues --   -5.93871  -1.11936  -1.11440  -1.08207  -1.07948
 Alpha  occ. eigenvalues --   -1.04072  -1.03530  -0.97001  -0.95654  -0.89832
 Alpha  occ. eigenvalues --   -0.89693  -0.80725  -0.80238  -0.79719  -0.78454
 Alpha  occ. eigenvalues --   -0.77761  -0.73382  -0.72876  -0.72049  -0.70238
 Alpha  occ. eigenvalues --   -0.67207  -0.66637  -0.65783  -0.62293  -0.60075
 Alpha  occ. eigenvalues --   -0.57202  -0.57089  -0.56773  -0.56600  -0.56032
 Alpha  occ. eigenvalues --   -0.54156  -0.53432  -0.52976  -0.51301  -0.51049
 Alpha  occ. eigenvalues --   -0.48064  -0.47491  -0.47341  -0.46732  -0.46676
 Alpha  occ. eigenvalues --   -0.45814  -0.45429  -0.45301  -0.44737  -0.43522
 Alpha  occ. eigenvalues --   -0.43241  -0.42969  -0.42745  -0.42467  -0.42052
 Alpha  occ. eigenvalues --   -0.41641  -0.40974  -0.40798  -0.38785  -0.36694
 Alpha  occ. eigenvalues --   -0.36332  -0.36321  -0.36113  -0.35867  -0.35044
 Alpha  occ. eigenvalues --   -0.33816  -0.33597  -0.32553  -0.32425  -0.26974
 Alpha  occ. eigenvalues --   -0.25957  -0.25433  -0.25170  -0.24728  -0.23602
 Alpha  occ. eigenvalues --   -0.23402  -0.18511
 Alpha virt. eigenvalues --   -0.09367  -0.04271  -0.00925  -0.00850  -0.00353
 Alpha virt. eigenvalues --    0.00330   0.00384   0.00758   0.00869   0.01506
 Alpha virt. eigenvalues --    0.01591   0.01814   0.02165   0.02309   0.02810
 Alpha virt. eigenvalues --    0.03174   0.04106   0.04170   0.04636   0.04896
 Alpha virt. eigenvalues --    0.05223   0.05333   0.05741   0.05954   0.06228
 Alpha virt. eigenvalues --    0.06579   0.06675   0.06933   0.07473   0.07525
 Alpha virt. eigenvalues --    0.08227   0.08528   0.08769   0.08864   0.09206
 Alpha virt. eigenvalues --    0.09674   0.10176   0.10370   0.10486   0.10822
 Alpha virt. eigenvalues --    0.11405   0.11696   0.11897   0.12421   0.12982
 Alpha virt. eigenvalues --    0.13058   0.13284   0.13483   0.13617   0.13911
 Alpha virt. eigenvalues --    0.14498   0.14913   0.14961   0.15066   0.15197
 Alpha virt. eigenvalues --    0.15552   0.15766   0.16006   0.16178   0.16402
 Alpha virt. eigenvalues --    0.17078   0.17147   0.17425   0.17476   0.18195
 Alpha virt. eigenvalues --    0.18632   0.18736   0.19150   0.19479   0.19569
 Alpha virt. eigenvalues --    0.19779   0.20098   0.20386   0.20644   0.20879
 Alpha virt. eigenvalues --    0.21158   0.21299   0.21412   0.21933   0.22187
 Alpha virt. eigenvalues --    0.22220   0.22610   0.22698   0.22961   0.23126
 Alpha virt. eigenvalues --    0.23333   0.23758   0.23968   0.24594   0.24729
 Alpha virt. eigenvalues --    0.24780   0.25269   0.25702   0.26109   0.26241
 Alpha virt. eigenvalues --    0.26669   0.27008   0.27179   0.27277   0.27627
 Alpha virt. eigenvalues --    0.27787   0.28301   0.28705   0.28903   0.29202
 Alpha virt. eigenvalues --    0.29277   0.30092   0.30253   0.30391   0.30847
 Alpha virt. eigenvalues --    0.31054   0.31354   0.31461   0.31787   0.31884
 Alpha virt. eigenvalues --    0.32231   0.32477   0.32607   0.32716   0.33037
 Alpha virt. eigenvalues --    0.33360   0.33926   0.34418   0.34533   0.34687
 Alpha virt. eigenvalues --    0.35148   0.35488   0.35659   0.35843   0.36401
 Alpha virt. eigenvalues --    0.36952   0.37420   0.37630   0.38253   0.38789
 Alpha virt. eigenvalues --    0.38901   0.39150   0.39768   0.40512   0.40618
 Alpha virt. eigenvalues --    0.41812   0.43422   0.43536   0.43799   0.45359
 Alpha virt. eigenvalues --    0.46420   0.46644   0.47264   0.47581   0.48586
 Alpha virt. eigenvalues --    0.50117   0.50847   0.52582   0.53160   0.53496
 Alpha virt. eigenvalues --    0.54392   0.55935   0.56614   0.57351   0.58396
 Alpha virt. eigenvalues --    0.59467   0.60090   0.60372   0.60451   0.62096
 Alpha virt. eigenvalues --    0.64460   0.64999   0.65449   0.65675   0.66126
 Alpha virt. eigenvalues --    0.66142   0.66438   0.67199   0.67400   0.67609
 Alpha virt. eigenvalues --    0.68057   0.68558   0.69576   0.70796   0.71422
 Alpha virt. eigenvalues --    0.71786   0.72731   0.72914   0.74583   0.74612
 Alpha virt. eigenvalues --    0.75599   0.76023   0.76910   0.77208   0.78958
 Alpha virt. eigenvalues --    0.79333   0.80045   0.80358   0.81720   0.81794
 Alpha virt. eigenvalues --    0.82370   0.82883   0.83043   0.84122   0.84535
 Alpha virt. eigenvalues --    0.85660   0.86284   0.86451   0.87669   0.88849
 Alpha virt. eigenvalues --    0.90069   0.90287   0.91384   0.91789   0.92318
 Alpha virt. eigenvalues --    0.93209   0.93684   0.95045   0.95526   0.96178
 Alpha virt. eigenvalues --    0.97286   0.98588   0.99145   0.99898   1.00688
 Alpha virt. eigenvalues --    1.01862   1.02313   1.04033   1.04594   1.04842
 Alpha virt. eigenvalues --    1.05755   1.06402   1.06442   1.07910   1.09175
 Alpha virt. eigenvalues --    1.09752   1.11098   1.11291   1.12627   1.13372
 Alpha virt. eigenvalues --    1.14365   1.15810   1.16227   1.17280   1.17908
 Alpha virt. eigenvalues --    1.18972   1.19378   1.19820   1.19922   1.20544
 Alpha virt. eigenvalues --    1.20669   1.21491   1.22350   1.22826   1.22988
 Alpha virt. eigenvalues --    1.23608   1.23999   1.24890   1.26577   1.27085
 Alpha virt. eigenvalues --    1.27684   1.28239   1.29060   1.29216   1.29500
 Alpha virt. eigenvalues --    1.29926   1.30224   1.31019   1.32058   1.32358
 Alpha virt. eigenvalues --    1.32482   1.33469   1.34718   1.35246   1.35445
 Alpha virt. eigenvalues --    1.36260   1.37736   1.38504   1.38895   1.39561
 Alpha virt. eigenvalues --    1.39855   1.40565   1.41233   1.42109   1.42321
 Alpha virt. eigenvalues --    1.43137   1.43459   1.44233   1.44864   1.45254
 Alpha virt. eigenvalues --    1.47135   1.48653   1.49232   1.51017   1.51426
 Alpha virt. eigenvalues --    1.51793   1.53079   1.54459   1.55654   1.57427
 Alpha virt. eigenvalues --    1.57943   1.61125   1.61580   1.63598   1.65821
 Alpha virt. eigenvalues --    1.66177   1.66878   1.66945   1.69214   1.69308
 Alpha virt. eigenvalues --    1.71864   1.72260   1.73777   1.74399   1.75541
 Alpha virt. eigenvalues --    1.76170   1.76847   1.78876   1.79740   1.80679
 Alpha virt. eigenvalues --    1.81259   1.81776   1.82744   1.82969   1.83278
 Alpha virt. eigenvalues --    1.84706   1.84976   1.87647   1.87683   1.87987
 Alpha virt. eigenvalues --    1.88323   1.88750   1.88819   1.89394   1.90270
 Alpha virt. eigenvalues --    1.91773   1.92308   1.92828   1.94094   1.94993
 Alpha virt. eigenvalues --    1.96167   1.96760   1.97156   1.97312   1.97876
 Alpha virt. eigenvalues --    1.99348   2.00373   2.00664   2.02421   2.04111
 Alpha virt. eigenvalues --    2.04414   2.04568   2.05865   2.06597   2.07383
 Alpha virt. eigenvalues --    2.08498   2.09030   2.09194   2.11289   2.12491
 Alpha virt. eigenvalues --    2.13731   2.14347   2.14705   2.14899   2.15945
 Alpha virt. eigenvalues --    2.17120   2.18195   2.18742   2.18862   2.20268
 Alpha virt. eigenvalues --    2.23038   2.24235   2.24970   2.27070   2.27428
 Alpha virt. eigenvalues --    2.29917   2.31039   2.32055   2.32672   2.32857
 Alpha virt. eigenvalues --    2.33698   2.36550   2.39445   2.40245   2.40548
 Alpha virt. eigenvalues --    2.41229   2.41774   2.42502   2.43715   2.43753
 Alpha virt. eigenvalues --    2.44574   2.45144   2.45571   2.47233   2.48143
 Alpha virt. eigenvalues --    2.51190   2.51273   2.51927   2.52777   2.53701
 Alpha virt. eigenvalues --    2.55537   2.55689   2.57188   2.59278   2.59766
 Alpha virt. eigenvalues --    2.60618   2.61380   2.62396   2.63806   2.65869
 Alpha virt. eigenvalues --    2.67224   2.68841   2.69182   2.70882   2.71029
 Alpha virt. eigenvalues --    2.72106   2.72600   2.72842   2.74802   2.77210
 Alpha virt. eigenvalues --    2.77837   2.78352   2.79136   2.79708   2.81273
 Alpha virt. eigenvalues --    2.82090   2.85376   2.85852   2.86985   2.87334
 Alpha virt. eigenvalues --    2.90572   2.92225   2.92536   2.93367   2.95860
 Alpha virt. eigenvalues --    2.96696   3.02053   3.03072   3.04053   3.05687
 Alpha virt. eigenvalues --    3.07368   3.07967   3.09081   3.13944   3.19314
 Alpha virt. eigenvalues --    3.21154   3.23707   3.27076   3.28726   3.29124
 Alpha virt. eigenvalues --    3.29376   3.30297   3.30955   3.31391   3.37734
 Alpha virt. eigenvalues --    3.45575   3.45647   3.47314   3.47364   3.47695
 Alpha virt. eigenvalues --    3.50977   3.51369   3.59340   3.61570   3.98183
 Alpha virt. eigenvalues --    3.98624   4.24019   4.26740   4.28825   4.30267
 Alpha virt. eigenvalues --    4.30807   4.35924   4.38563   4.39664   4.42445
 Alpha virt. eigenvalues --    4.43659   4.48197   4.52252   4.53714   4.54583
 Alpha virt. eigenvalues --    4.54986   4.60847   4.61429   4.64591   4.72019
 Alpha virt. eigenvalues --    4.73533   4.76583   4.83165   4.89669   4.96718
 Alpha virt. eigenvalues --    5.08358   5.10159
          Condensed to atoms (all electrons):
              1          2          3          4          5          6
     1  N    7.452896   0.639136   0.003249  -0.001691  -0.732537  -0.015977
     2  C    0.639136  11.551104  -0.501344  -0.414448  -5.320842  -0.774354
     3  C    0.003249  -0.501344  11.124465   1.769798  -3.722828  -1.538866
     4  C   -0.001691  -0.414448   1.769798  17.312927  -4.015198  -3.885151
     5  C   -0.732537  -5.320842  -3.722828  -4.015198  17.480839   1.865403
     6  C   -0.015977  -0.774354  -1.538866  -3.885151   1.865403  11.595360
     7  C    0.081879   1.619325  -0.604432  -5.033444  -0.695358  -0.431324
     8  N    0.004864   0.090900  -0.016495  -0.797967   0.008077  -0.012078
     9  O   -0.092562   0.188455   0.004951  -0.117327   0.106990   0.077233
    10  O   -0.005702  -0.009595   0.094143   0.109460  -0.129468  -0.015752
    11  H    0.000235   0.013507  -0.009135  -0.046649   0.067235  -0.034998
    12  H    0.305241  -0.031783  -0.022516   0.052300  -0.029171  -0.010907
    13  C    0.085824   0.123306  -0.938131  -0.221218  -0.028094  -0.059072
    14  C    0.070897  -0.222834  -1.544057  -0.047016   1.239849   0.264206
    15  C   -0.006797  -0.009103  -0.075992   0.025627   0.005655   0.000848
    16  H   -0.000301  -0.000641   0.004552   0.000859  -0.001217  -0.000032
    17  C   -0.006500  -0.009935   0.054627  -0.008195   0.011640   0.001804
    18  H    0.000661  -0.000223  -0.010710   0.001963   0.000195  -0.000007
    19  C   -0.350476  -0.786100   1.943499   0.289536   0.334338  -0.291625
    20  C    0.014841   0.030457  -0.405855   0.244687  -0.037958   0.022001
    21  H    0.000203  -0.000152  -0.003498   0.002291   0.001014   0.000067
    22  S    0.011034   0.078029  -0.068106  -0.136828  -0.063756  -0.080007
    23  C    0.046715   0.127924   0.303864   1.260987   0.040403  -1.768167
    24  C   -0.001193  -0.011552  -0.051408  -0.052650  -0.170244  -0.927416
    25  C    0.000059  -0.000146  -0.000634   0.007823  -0.011888   0.037906
    26  H    0.000000  -0.000020   0.000002   0.000247   0.000934  -0.008506
    27  C    0.000220  -0.007377   0.005105   0.005143   0.025267  -0.041053
    28  H    0.000000   0.000067  -0.000051  -0.001791  -0.000040   0.008096
    29  C    0.002677   0.177005   0.027262  -0.035886   0.290081  -0.558804
    30  H    0.000004   0.000129   0.000070   0.000932   0.002254  -0.003268
    31  C   -0.121793  -1.154738  -0.275706   0.330759   0.149143   2.029178
    32  S    0.002124  -0.134210  -0.065412  -0.076083  -0.088431  -0.030946
    33  O    0.000990   0.001986  -0.014455   0.009067  -0.003102   0.000122
    34  O    0.055708  -0.015912  -0.125605   0.012720  -0.001631  -0.002621
    35  H   -0.000226   0.000717  -0.012279   0.001987  -0.001004  -0.000002
    36  H   -0.000070   0.000068  -0.001253   0.000099  -0.000099   0.000000
    37  O   -0.000321   0.004175  -0.004836  -0.024471   0.020262  -0.132361
    38  O    0.000017   0.001457   0.000118  -0.001329   0.006867  -0.014306
    39  H    0.000000   0.000033   0.000032   0.000871   0.002657  -0.018936
    40  H    0.000000   0.000016   0.000000  -0.000096   0.000253  -0.001574
              7          8          9         10         11         12
     1  N    0.081879   0.004864  -0.092562  -0.005702   0.000235   0.305241
     2  C    1.619325   0.090900   0.188455  -0.009595   0.013507  -0.031783
     3  C   -0.604432  -0.016495   0.004951   0.094143  -0.009135  -0.022516
     4  C   -5.033444  -0.797967  -0.117327   0.109460  -0.046649   0.052300
     5  C   -0.695358   0.008077   0.106990  -0.129468   0.067235  -0.029171
     6  C   -0.431324  -0.012078   0.077233  -0.015752  -0.034998  -0.010907
     7  C   11.417387   0.716207  -0.015163   0.174339  -0.020070   0.006832
     8  N    0.716207   7.458558  -0.006055  -0.090619   0.307618   0.000119
     9  O   -0.015163  -0.006055   8.393493  -0.000023   0.000000   0.000802
    10  O    0.174339  -0.090619  -0.000023   8.397179  -0.000055   0.000004
    11  H   -0.020070   0.307618   0.000000  -0.000055   0.374546   0.000000
    12  H    0.006832   0.000119   0.000802   0.000004   0.000000   0.382753
    13  C   -0.011903  -0.001756  -0.000489  -0.005234  -0.000028   0.024946
    14  C    0.108958   0.040032   0.004125  -0.015560   0.000068   0.043603
    15  C    0.007928   0.000379  -0.000136   0.000152   0.000000  -0.002960
    16  H    0.000110   0.000000  -0.000010   0.000000   0.000000  -0.000141
    17  C   -0.007589  -0.000006   0.000070  -0.000046   0.000000  -0.001862
    18  H    0.000144   0.000000   0.000000   0.000000   0.000000  -0.000003
    19  C   -1.333086  -0.123592   0.020867   0.019100  -0.001740  -0.047821
    20  C    0.194485   0.002321   0.000267   0.008913   0.000013   0.002713
    21  H   -0.000001   0.000003   0.000000  -0.000013   0.000000   0.000000
    22  S   -0.083898   0.002054  -0.002506  -0.022808   0.000666  -0.005361
    23  C   -0.194025   0.096194  -0.014587   0.002696   0.048027   0.000170
    24  C    0.109774   0.070115  -0.012645  -0.000448   0.028170  -0.000030
    25  C   -0.004062  -0.000934   0.000061  -0.000099  -0.000815   0.000000
    26  H   -0.000186   0.000540   0.000000   0.000000   0.000003   0.000000
    27  C   -0.014734  -0.017501   0.000008   0.000168  -0.003635   0.000000
    28  H   -0.000222  -0.000892   0.000000  -0.000013  -0.000173   0.000000
    29  C    0.029773   0.017487   0.014823   0.000258   0.003320   0.000021
    30  H   -0.000135   0.000206  -0.000014   0.000000   0.000000   0.000000
    31  C   -0.776537  -0.355453   0.003400   0.023718  -0.061544  -0.000789
    32  S    0.061514   0.005238  -0.021382  -0.002350  -0.006151   0.000847
    33  O    0.001920   0.000016  -0.000001   0.000003   0.000000  -0.000001
    34  O    0.004271  -0.000156  -0.000782   0.000091   0.000000   0.005090
    35  H    0.000061   0.000000   0.000000   0.000000   0.000000   0.000030
    36  H    0.000002   0.000000   0.000000   0.000000   0.000000   0.000000
    37  O   -0.003480   0.052747   0.000129  -0.001040   0.007181   0.000000
    38  O    0.001464   0.001661   0.000004   0.000000  -0.000008   0.000000
    39  H    0.000046   0.001067   0.000000   0.000003   0.000062   0.000000
    40  H    0.000057  -0.000065   0.000000   0.000000   0.000000   0.000000
             13         14         15         16         17         18
     1  N    0.085824   0.070897  -0.006797  -0.000301  -0.006500   0.000661
     2  C    0.123306  -0.222834  -0.009103  -0.000641  -0.009935  -0.000223
     3  C   -0.938131  -1.544057  -0.075992   0.004552   0.054627  -0.010710
     4  C   -0.221218  -0.047016   0.025627   0.000859  -0.008195   0.001963
     5  C   -0.028094   1.239849   0.005655  -0.001217   0.011640   0.000195
     6  C   -0.059072   0.264206   0.000848  -0.000032   0.001804  -0.000007
     7  C   -0.011903   0.108958   0.007928   0.000110  -0.007589   0.000144
     8  N   -0.001756   0.040032   0.000379   0.000000  -0.000006   0.000000
     9  O   -0.000489   0.004125  -0.000136  -0.000010   0.000070   0.000000
    10  O   -0.005234  -0.015560   0.000152   0.000000  -0.000046   0.000000
    11  H   -0.000028   0.000068   0.000000   0.000000   0.000000   0.000000
    12  H    0.024946   0.043603  -0.002960  -0.000141  -0.001862  -0.000003
    13  C   12.620135  -2.485980  -0.044234  -0.015016  -0.195408   0.090671
    14  C   -2.485980  10.761116  -0.062250   0.034305   0.132493  -0.081840
    15  C   -0.044234  -0.062250   5.167469   0.401720   0.275374  -0.025598
    16  H   -0.015016   0.034305   0.401720   0.561675  -0.036983  -0.002007
    17  C   -0.195408   0.132493   0.275374  -0.036983   5.136990   0.399991
    18  H    0.090671  -0.081840  -0.025598  -0.002007   0.399991   0.571682
    19  C   -1.972624  -0.123347  -0.050382   0.002037   0.029639  -0.016251
    20  C   -2.002340  -1.974223  -0.012056  -0.002912  -0.118694  -0.021695
    21  H   -0.024960   0.020789   0.000127   0.000000  -0.000733  -0.000003
    22  S    0.386614  -0.194952   0.018144  -0.000511   0.005711   0.000200
    23  C   -0.002187  -0.036331  -0.000312   0.000000   0.000048   0.000000
    24  C   -0.000079  -0.001632  -0.000003   0.000000   0.000000   0.000000
    25  C    0.000000  -0.000031   0.000000   0.000000   0.000000   0.000000
    26  H    0.000000   0.000000   0.000000   0.000000   0.000000   0.000000
    27  C   -0.000013  -0.000056  -0.000001   0.000000   0.000000   0.000000
    28  H    0.000000   0.000000   0.000000   0.000000   0.000000   0.000000
    29  C   -0.000028  -0.000322  -0.000019   0.000000   0.000002   0.000000
    30  H    0.000000   0.000000   0.000000   0.000000   0.000000   0.000000
    31  C    0.000274  -0.017341  -0.000074   0.000000   0.000124  -0.000001
    32  S    0.000128   0.003736  -0.000384  -0.000003   0.000051   0.000000
    33  O    0.204527   0.038510  -0.022207   0.005494   0.078871  -0.043064
    34  O    0.314537  -0.013732   0.014878  -0.067933  -0.040437   0.006832
    35  H    0.068323  -0.080636   0.443119  -0.034630  -0.054024   0.004189
    36  H    0.070350  -0.073202  -0.025464   0.000247   0.371119  -0.033777
    37  O    0.000000   0.000325   0.000001   0.000000   0.000000   0.000000
    38  O    0.000000  -0.000001   0.000000   0.000000   0.000000   0.000000
    39  H    0.000000   0.000000   0.000000   0.000000   0.000000   0.000000
    40  H    0.000000   0.000000   0.000000   0.000000   0.000000   0.000000
             19         20         21         22         23         24
     1  N   -0.350476   0.014841   0.000203   0.011034   0.046715  -0.001193
     2  C   -0.786100   0.030457  -0.000152   0.078029   0.127924  -0.011552
     3  C    1.943499  -0.405855  -0.003498  -0.068106   0.303864  -0.051408
     4  C    0.289536   0.244687   0.002291  -0.136828   1.260987  -0.052650
     5  C    0.334338  -0.037958   0.001014  -0.063756   0.040403  -0.170244
     6  C   -0.291625   0.022001   0.000067  -0.080007  -1.768167  -0.927416
     7  C   -1.333086   0.194485  -0.000001  -0.083898  -0.194025   0.109774
     8  N   -0.123592   0.002321   0.000003   0.002054   0.096194   0.070115
     9  O    0.020867   0.000267   0.000000  -0.002506  -0.014587  -0.012645
    10  O    0.019100   0.008913  -0.000013  -0.022808   0.002696  -0.000448
    11  H   -0.001740   0.000013   0.000000   0.000666   0.048027   0.028170
    12  H   -0.047821   0.002713   0.000000  -0.005361   0.000170  -0.000030
    13  C   -1.972624  -2.002340  -0.024960   0.386614  -0.002187  -0.000079
    14  C   -0.123347  -1.974223   0.020789  -0.194952  -0.036331  -0.001632
    15  C   -0.050382  -0.012056   0.000127   0.018144  -0.000312  -0.000003
    16  H    0.002037  -0.002912   0.000000  -0.000511   0.000000   0.000000
    17  C    0.029639  -0.118694  -0.000733   0.005711   0.000048   0.000000
    18  H   -0.016251  -0.021695  -0.000003   0.000200   0.000000   0.000000
    19  C    9.347679  -0.584244   0.010036   0.145003  -0.028778  -0.001678
    20  C   -0.584244  11.172333   0.315340  -0.195653  -0.000117   0.000003
    21  H    0.010036   0.315340   0.503915   0.011088   0.000000   0.000000
    22  S    0.145003  -0.195653   0.011088  15.949269   0.004457   0.000667
    23  C   -0.028778  -0.000117   0.000000   0.004457  10.937843  -2.436174
    24  C   -0.001678   0.000003   0.000000   0.000667  -2.436174  12.530405
    25  C    0.000321  -0.000001   0.000000  -0.000013   0.038806  -0.020587
    26  H    0.000000   0.000000   0.000000   0.000000  -0.073491   0.077335
    27  C   -0.000723  -0.000002   0.000000  -0.000204  -0.024437  -0.176081
    28  H    0.000000   0.000000   0.000000  -0.000003   0.046097  -0.028212
    29  C   -0.008725   0.000028   0.000000  -0.000241  -1.943411  -2.064550
    30  H    0.000001   0.000000   0.000000   0.000000   0.021667  -0.024214
    31  C    0.246692  -0.007699   0.000001  -0.003315  -0.390659  -1.839967
    32  S   -0.006024  -0.000142   0.000000  -0.000228  -0.185379   0.353620
    33  O    0.049891  -0.401131  -0.003215   0.023075   0.000000   0.000000
    34  O   -0.295863  -0.024015  -0.000505   0.028577   0.000328  -0.000001
    35  H   -0.001361  -0.013673  -0.000001   0.000738   0.000000   0.000000
    36  H    0.000740   0.041680  -0.000004  -0.000387   0.000000   0.000000
    37  O   -0.000343   0.000000   0.000000  -0.000164  -0.014451   0.312813
    38  O   -0.000019   0.000000   0.000000   0.000000   0.093950   0.166035
    39  H   -0.000003   0.000000   0.000000   0.000001  -0.080936   0.070150
    40  H    0.000000   0.000000   0.000000   0.000000  -0.071076   0.068355
             25         26         27         28         29         30
     1  N    0.000059   0.000000   0.000220   0.000000   0.002677   0.000004
     2  C   -0.000146  -0.000020  -0.007377   0.000067   0.177005   0.000129
     3  C   -0.000634   0.000002   0.005105  -0.000051   0.027262   0.000070
     4  C    0.007823   0.000247   0.005143  -0.001791  -0.035886   0.000932
     5  C   -0.011888   0.000934   0.025267  -0.000040   0.290081   0.002254
     6  C    0.037906  -0.008506  -0.041053   0.008096  -0.558804  -0.003268
     7  C   -0.004062  -0.000186  -0.014734  -0.000222   0.029773  -0.000135
     8  N   -0.000934   0.000540  -0.017501  -0.000892   0.017487   0.000206
     9  O    0.000061   0.000000   0.000008   0.000000   0.014823  -0.000014
    10  O   -0.000099   0.000000   0.000168  -0.000013   0.000258   0.000000
    11  H   -0.000815   0.000003  -0.003635  -0.000173   0.003320   0.000000
    12  H    0.000000   0.000000   0.000000   0.000000   0.000021   0.000000
    13  C    0.000000   0.000000  -0.000013   0.000000  -0.000028   0.000000
    14  C   -0.000031   0.000000  -0.000056   0.000000  -0.000322   0.000000
    15  C    0.000000   0.000000  -0.000001   0.000000  -0.000019   0.000000
    16  H    0.000000   0.000000   0.000000   0.000000   0.000000   0.000000
    17  C    0.000000   0.000000   0.000000   0.000000   0.000002   0.000000
    18  H    0.000000   0.000000   0.000000   0.000000   0.000000   0.000000
    19  C    0.000321   0.000000  -0.000723   0.000000  -0.008725   0.000001
    20  C   -0.000001   0.000000  -0.000002   0.000000   0.000028   0.000000
    21  H    0.000000   0.000000   0.000000   0.000000   0.000000   0.000000
    22  S   -0.000013   0.000000  -0.000204  -0.000003  -0.000241   0.000000
    23  C    0.038806  -0.073491  -0.024437   0.046097  -1.943411   0.021667
    24  C   -0.020587   0.077335  -0.176081  -0.028212  -2.064550  -0.024214
    25  C    5.136653   0.397565   0.263632  -0.028561  -0.160323  -0.001095
    26  H    0.397565   0.570799  -0.023196  -0.002072  -0.016619  -0.000003
    27  C    0.263632  -0.023196   5.193526   0.391010   0.043230   0.000162
    28  H   -0.028561  -0.002072   0.391010   0.558221  -0.005461   0.000000
    29  C   -0.160323  -0.016619   0.043230  -0.005461  11.505764   0.311213
    30  H   -0.001095  -0.000003   0.000162   0.000000   0.311213   0.504901
    31  C   -0.002524  -0.013745  -0.018783   0.006822  -0.729572   0.010880
    32  S    0.015869  -0.000875   0.007350  -0.000443  -0.231638   0.012029
    33  O    0.000000   0.000000   0.000000   0.000000   0.000000   0.000000
    34  O    0.000000   0.000000   0.000000   0.000000   0.000000   0.000000
    35  H    0.000000   0.000000   0.000000   0.000000   0.000000   0.000000
    36  H    0.000000   0.000000   0.000000   0.000000   0.000000   0.000000
    37  O   -0.049969   0.007385   0.035443  -0.066167  -0.012257  -0.000497
    38  O    0.077594  -0.044186  -0.026827   0.005356  -0.407173  -0.003138
    39  H   -0.058384   0.004121   0.446203  -0.034040  -0.005042  -0.000002
    40  H    0.376702  -0.034678  -0.030807   0.000186   0.041171  -0.000005
             31         32         33         34         35         36
     1  N   -0.121793   0.002124   0.000990   0.055708  -0.000226  -0.000070
     2  C   -1.154738  -0.134210   0.001986  -0.015912   0.000717   0.000068
     3  C   -0.275706  -0.065412  -0.014455  -0.125605  -0.012279  -0.001253
     4  C    0.330759  -0.076083   0.009067   0.012720   0.001987   0.000099
     5  C    0.149143  -0.088431  -0.003102  -0.001631  -0.001004  -0.000099
     6  C    2.029178  -0.030946   0.000122  -0.002621  -0.000002   0.000000
     7  C   -0.776537   0.061514   0.001920   0.004271   0.000061   0.000002
     8  N   -0.355453   0.005238   0.000016  -0.000156   0.000000   0.000000
     9  O    0.003400  -0.021382  -0.000001  -0.000782   0.000000   0.000000
    10  O    0.023718  -0.002350   0.000003   0.000091   0.000000   0.000000
    11  H   -0.061544  -0.006151   0.000000   0.000000   0.000000   0.000000
    12  H   -0.000789   0.000847  -0.000001   0.005090   0.000030   0.000000
    13  C    0.000274   0.000128   0.204527   0.314537   0.068323   0.070350
    14  C   -0.017341   0.003736   0.038510  -0.013732  -0.080636  -0.073202
    15  C   -0.000074  -0.000384  -0.022207   0.014878   0.443119  -0.025464
    16  H    0.000000  -0.000003   0.005494  -0.067933  -0.034630   0.000247
    17  C    0.000124   0.000051   0.078871  -0.040437  -0.054024   0.371119
    18  H   -0.000001   0.000000  -0.043064   0.006832   0.004189  -0.033777
    19  C    0.246692  -0.006024   0.049891  -0.295863  -0.001361   0.000740
    20  C   -0.007699  -0.000142  -0.401131  -0.024015  -0.013673   0.041680
    21  H    0.000001   0.000000  -0.003215  -0.000505  -0.000001  -0.000004
    22  S   -0.003315  -0.000228   0.023075   0.028577   0.000738  -0.000387
    23  C   -0.390659  -0.185379   0.000000   0.000328   0.000000   0.000000
    24  C   -1.839967   0.353620   0.000000  -0.000001   0.000000   0.000000
    25  C   -0.002524   0.015869   0.000000   0.000000   0.000000   0.000000
    26  H   -0.013745  -0.000875   0.000000   0.000000   0.000000   0.000000
    27  C   -0.018783   0.007350   0.000000   0.000000   0.000000   0.000000
    28  H    0.006822  -0.000443   0.000000   0.000000   0.000000   0.000000
    29  C   -0.729572  -0.231638   0.000000   0.000000   0.000000   0.000000
    30  H    0.010880   0.012029   0.000000   0.000000   0.000000   0.000000
    31  C    9.397111   0.194371  -0.000024  -0.000351  -0.000004   0.000000
    32  S    0.194371  15.935019   0.000001  -0.000109   0.000000   0.000000
    33  O   -0.000024   0.000001   8.532046  -0.029885   0.001942  -0.061737
    34  O   -0.000351  -0.000109  -0.029885   8.588165  -0.044715   0.005981
    35  H   -0.000004   0.000000   0.001942  -0.044715   0.560462  -0.002416
    36  H    0.000000   0.000000  -0.061737   0.005981  -0.002416   0.555416
    37  O   -0.278054   0.028323   0.000000   0.000000   0.000000   0.000000
    38  O    0.047159   0.022285   0.000000   0.000000   0.000000   0.000000
    39  H   -0.007717  -0.000246   0.000000   0.000000   0.000000   0.000000
    40  H    0.000793  -0.000281   0.000000   0.000000   0.000000   0.000000
             37         38         39         40
     1  N   -0.000321   0.000017   0.000000   0.000000
     2  C    0.004175   0.001457   0.000033   0.000016
     3  C   -0.004836   0.000118   0.000032   0.000000
     4  C   -0.024471  -0.001329   0.000871  -0.000096
     5  C    0.020262   0.006867   0.002657   0.000253
     6  C   -0.132361  -0.014306  -0.018936  -0.001574
     7  C   -0.003480   0.001464   0.000046   0.000057
     8  N    0.052747   0.001661   0.001067  -0.000065
     9  O    0.000129   0.000004   0.000000   0.000000
    10  O   -0.001040   0.000000   0.000003   0.000000
    11  H    0.007181  -0.000008   0.000062   0.000000
    12  H    0.000000   0.000000   0.000000   0.000000
    13  C    0.000000   0.000000   0.000000   0.000000
    14  C    0.000325  -0.000001   0.000000   0.000000
    15  C    0.000001   0.000000   0.000000   0.000000
    16  H    0.000000   0.000000   0.000000   0.000000
    17  C    0.000000   0.000000   0.000000   0.000000
    18  H    0.000000   0.000000   0.000000   0.000000
    19  C   -0.000343  -0.000019  -0.000003   0.000000
    20  C    0.000000   0.000000   0.000000   0.000000
    21  H    0.000000   0.000000   0.000000   0.000000
    22  S   -0.000164   0.000000   0.000001   0.000000
    23  C   -0.014451   0.093950  -0.080936  -0.071076
    24  C    0.312813   0.166035   0.070150   0.068355
    25  C   -0.049969   0.077594  -0.058384   0.376702
    26  H    0.007385  -0.044186   0.004121  -0.034678
    27  C    0.035443  -0.026827   0.446203  -0.030807
    28  H   -0.066167   0.005356  -0.034040   0.000186
    29  C   -0.012257  -0.407173  -0.005042   0.041171
    30  H   -0.000497  -0.003138  -0.000002  -0.000005
    31  C   -0.278054   0.047159  -0.007717   0.000793
    32  S    0.028323   0.022285  -0.000246  -0.000281
    33  O    0.000000   0.000000   0.000000   0.000000
    34  O    0.000000   0.000000   0.000000   0.000000
    35  H    0.000000   0.000000   0.000000   0.000000
    36  H    0.000000   0.000000   0.000000   0.000000
    37  O    8.562429  -0.027372  -0.042811   0.004874
    38  O   -0.027372   8.531131   0.001890  -0.061999
    39  H   -0.042811   0.001890   0.559572  -0.002103
    40  H    0.004874  -0.061999  -0.002103   0.559316
 Mulliken atomic charges:
              1
     1  N   -0.443330
     2  C    0.757512
     3  C    0.677867
     4  C   -0.522644
     5  C   -0.606491
     6  C    0.755887
     7  C    0.693173
     8  N   -0.452839
     9  O   -0.531994
    10  O   -0.531405
    11  H    0.334349
    12  H    0.327873
    13  C    0.019161
    14  C    0.212331
    15  C   -0.023450
    16  H    0.151337
    17  C   -0.018143
    18  H    0.158649
    19  C   -0.414572
    20  C   -0.247674
    21  H    0.168211
    22  S    0.193616
    23  C    0.194340
    24  C    0.033322
    25  C   -0.012927
    26  H    0.158645
    27  C   -0.031039
    28  H    0.152286
    29  C   -0.284043
    30  H    0.167923
    31  C   -0.384037
    32  S    0.208210
    33  O   -0.369638
    34  O   -0.372927
    35  H    0.163404
    36  H    0.152709
    37  O   -0.377494
    38  O   -0.370630
    39  H    0.163512
    40  H    0.150961
 Sum of Mulliken atomic charges =   0.00000
 Mulliken charges with hydrogens summed into heavy atoms:
              1
     1  N   -0.115457
     2  C    0.757512
     3  C    0.677867
     4  C   -0.522644
     5  C   -0.606491
     6  C    0.755887
     7  C    0.693173
     8  N   -0.118491
     9  O   -0.531994
    10  O   -0.531405
    13  C    0.019161
    14  C    0.212331
    15  C    0.291291
    17  C    0.293214
    19  C   -0.414572
    20  C   -0.079463
    22  S    0.193616
    23  C    0.194340
    24  C    0.033322
    25  C    0.296679
    27  C    0.284759
    29  C   -0.116120
    31  C   -0.384037
    32  S    0.208210
    33  O   -0.369638
    34  O   -0.372927
    37  O   -0.377494
    38  O   -0.370630
 Sum of Mulliken charges with hydrogens summed into heavy atoms =   0.00000
 Electronic spatial extent (au):  <R**2>=          17066.7781
 Charge=              0.0000 electrons
 Dipole moment (field-independent basis, Debye):
    X=             -0.0871    Y=              0.0550    Z=             -0.1339  Tot=              0.1689
 Quadrupole moment (field-independent basis, Debye-Ang):
   XX=           -121.0538   YY=           -173.7188   ZZ=           -163.0076
   XY=             -9.6019   XZ=             45.3732   YZ=             -4.1083
 Traceless Quadrupole moment (field-independent basis, Debye-Ang):
   XX=             31.5396   YY=            -21.1254   ZZ=            -10.4142
   XY=             -9.6019   XZ=             45.3732   YZ=             -4.1083
 Octapole moment (field-independent basis, Debye-Ang**2):
  XXX=             59.4393  YYY=           -291.2042  ZZZ=            459.6797  XYY=             15.9022
  XXY=            -57.2771  XXZ=             97.4384  XZZ=            -55.2454  YZZ=            -83.1114
  YYZ=            158.2588  XYZ=             41.5069
 Hexadecapole moment (field-independent basis, Debye-Ang**3):
 XXXX=         -16144.0656 YYYY=           -822.2825 ZZZZ=          -4127.0141 XXXY=            368.6420
 XXXZ=           -481.7550 YYYX=            477.2930 YYYZ=            701.7558 ZZZX=           -878.7471
 ZZZY=            635.0602 XXYY=          -2985.6891 XXZZ=          -2475.9867 YYZZ=           -824.0460
 XXYZ=            -90.6359 YYXZ=           -424.9984 ZZXY=            -48.2151
 N-N= 2.837841346664D+03 E-N=-1.049096650047D+04  KE= 2.036360722632D+03
 Calling FoFJK, ICntrl=      2127 FMM=F ISym2X=0 I1Cent= 0 IOpClX= 0 NMat=1 NMatS=1 NMatT=0.
 -------------------------------------------------------------------
 Center     Atomic                   Forces (Hartrees/Bohr)
 Number     Number              X              Y              Z
 -------------------------------------------------------------------
      1        7           0.001849651   -0.004182255   -0.001871432
      2        6          -0.002170390   -0.001789765    0.001320909
      3        6          -0.003388488    0.002927454   -0.001595652
      4        6           0.003977633    0.001254669    0.003001894
      5        6           0.000344226    0.000883946    0.001381595
      6        6           0.000078507    0.000295928   -0.000130452
      7        6           0.004395143    0.000816316   -0.004852172
      8        7          -0.001075721    0.000345005    0.000387218
      9        8           0.000143139    0.000440420   -0.000296359
     10        8          -0.003716490   -0.001893150    0.000947337
     11        1          -0.000018889   -0.000122041    0.000093612
     12        1          -0.001774818    0.001942361    0.001657573
     13        6           0.003160757    0.001245375   -0.002748297
     14        6          -0.006362860   -0.000950012    0.013376356
     15        6          -0.001642566    0.001702151   -0.001414365
     16        1          -0.000510891    0.000636119   -0.000281601
     17        6          -0.000685570    0.000021698    0.003182388
     18        1          -0.000218013   -0.000480622   -0.000213097
     19        6           0.002680640   -0.001055688    0.004253123
     20        6           0.004137463   -0.001668169   -0.000563020
     21        1          -0.000114617    0.000265400    0.000014630
     22       16          -0.000484220   -0.000403076    0.000160778
     23        6          -0.000050898    0.000029128   -0.000105257
     24        6          -0.000007247    0.000019466   -0.000140033
     25        6          -0.000033852   -0.000025676   -0.000001432
     26        1           0.000001079    0.000005815   -0.000008637
     27        6          -0.000046515   -0.000015655    0.000001020
     28        1           0.000001490   -0.000010615   -0.000007238
     29        6           0.000245415    0.000001448    0.000044215
[...]
 .00792295,-0.00872544,0.00073974,0.00048086,0.00027537,0.08733980,-0.0
 9369901,0.04378878,0.02537847,-0.00937546,0.01187231,0.00001480,0.0000
 0120,-0.00015176,-0.00001573,0.00015423,-0.00000382,0.00001612,0.00001
 961,-0.00000406,-0.00000579,-0.00000960,-0.00004219,-0.00000323,0.0000
 0055,-0.00001103,-0.00000630,0.00000364,-0.00000763,-0.00000030,-0.000
 00006,-0.00000263,-0.00000052,0.00000026,0.00000030,-0.00000610,0.0000
 0283,-0.00000355,-0.00000008,0.00000004,0.00000048,0.00000777,-0.00000
 074,0.00000155,-0.00000014,0.00000011,0.00000027,0.00000703,-0.0000001
 3,0.00000111,-0.00000154,-0.00000071,0.00000357,-0.00142141,0.00243859
 ,-0.00017680,-0.00566298,-0.00046958,-0.00010287,0.00077559,0.00039307
 ,-0.00041280,-0.09241845,0.09192595,0.00003132,-0.00002630,0.00008492,
 -0.00003521,0.00000469,-0.00001165,0.00014272,0.00006886,-0.00021049,-
 0.00001853,0.00000305,0.00001272,-0.00000260,-0.00000878,0.00001051,0.
 00000718,0.,0.00000300,0.00010458,0.00000534,-0.00002847,-0.00003740,-
 0.00001007,0.00003424,-0.00000738,-0.00000968,0.00004103,-0.00008446,0
 .00000110,-0.00000568,0.00000562,-0.00000122,0.00000502,-0.00015424,0.
 00000535,-0.00000043,0.00399673,0.00095920,-0.00477845,0.00067829,0.00
 059413,-0.00213457,0.00324105,-0.00540456,0.00482264,-0.00042900,-0.00
 054326,0.00011128,-0.08340150,0.03964890,-0.08624362,0.00650634,-0.002
 16913,0.00560380,-0.00028887,-0.00005935,0.00013234,-0.00167702,-0.000
 05517,-0.00043031,0.00000863,0.00000743,-0.00000415,-0.00029093,0.0000
 6724,-0.00024365,0.00001343,-0.00000804,0.00003901,0.00001345,-0.00000
 950,0.00002869,-0.00000024,0.00000233,0.00000846,0.00000149,-0.0000011
 0,-0.00000103,0.00001926,-0.00000898,0.00001211,-0.00000004,0.00000051
 ,-0.00000168,-0.00003147,0.00000086,-0.00000465,0.00000011,0.00000059,
 -0.00000130,-0.00002534,0.00000468,-0.00000866,0.00000789,0.00000293,-
 0.00001159,-0.03103039,0.01182496,-0.03024010,0.00390781,0.00118771,0.
 00223144,-0.00037166,0.00011986,0.00006465,0.09923471,-0.04621061,0.11
 117072,-0.00040519,0.00010063,-0.00038849,-0.00006583,-0.00049661,0.00
 179893,0.00034030,0.00004165,-0.00019604,-0.00043723,0.00033674,-0.001
 01441,-0.00192740,0.00064395,-0.00211085,0.00203102,-0.00167163,0.0044
 4658,0.00349875,0.00056104,-0.00193484,-0.00813186,0.00027493,0.000172
 86,0.00052869,0.00024815,-0.00091711,-0.00090318,-0.00019548,0.0007563
 2,-0.00045579,0.00016964,-0.00214463,0.00006912,-0.00001283,0.00005272
 ,0.00024814,-0.00007119,0.00017769,-0.00004534,-0.00007320,0.00040323,
 0.00022498,-0.00010729,0.00014407,-0.00000196,0.00000483,-0.00002307,-
 0.00001588,0.00002291,0.00012519,0.00002015,-0.00001401,-0.00001333,-0
 .00008204,0.00001820,-0.00006669,-0.00019150,-0.00000423,-0.00000648,-
 0.00000267,0.00000517,-0.00001223,0.00012371,0.00000816,-0.00002838,-0
 .11327887,0.00438778,0.02140908,-0.00063038,-0.00721261,0.03645585,-0.
 04670563,0.01802627,-0.02632775,0.00276490,0.00089822,0.00011283,-0.15
 764576,0.03486066,-0.01180980,-0.00076513,0.00149252,-0.00398462,-0.00
 682100,0.00058688,-0.00096010,0.00048591,-0.00030633,0.00150729,0.0130
 9993,0.00761730,-0.02968267,-0.00095998,0.00019200,-0.00233879,-0.0002
 3198,0.00005681,-0.00022275,-0.00013709,0.00011234,-0.00046250,-0.0000
 3556,0.00002637,0.00000738,-0.00002353,0.00000393,-0.00001205,0.329195
 04,0.00005084,-0.00004579,-0.00015246,-0.00049852,0.00013638,-0.000605
 71,-0.00030272,0.00012657,-0.00031364,0.00063642,0.00011467,-0.0000282
 4,0.00016891,-0.00031149,0.00048283,-0.00237364,-0.00269564,-0.0005090
 7,-0.00007763,0.00025036,0.00094682,0.00148365,0.00129871,-0.00089372,
 0.00009604,-0.00008377,0.00049638,0.00011610,0.00024813,-0.00057673,0.
 00027301,-0.00179255,0.00050660,-0.00005004,0.00002840,-0.00003469,-0.
 00013437,0.00010745,-0.00032181,-0.00017170,0.00006074,-0.00047178,-0.
 00019774,0.00008608,-0.00012306,0.00000203,-0.00000584,0.00001845,0.00
 000284,-0.00002795,-0.00008850,-0.00001441,0.00001306,0.00001264,0.000
 34357,-0.00007384,0.00010664,0.00035496,0.00000685,0.00007185,-0.00000
 161,-0.00001067,0.00001365,-0.00009586,-0.00006501,0.00012763,-0.00497
 359,-0.05061669,0.06716280,-0.00127072,0.00031313,0.01190569,-0.009540
 49,0.00825562,-0.00503081,0.00097516,0.00276849,-0.00167986,0.04629155
 ,-0.08048713,0.01666013,0.00544464,-0.00117462,0.00491601,-0.00068789,
 0.00386523,-0.00107097,0.00006959,0.00014169,0.00035389,-0.00060101,0.
 00165401,0.01054446,0.00056791,0.00295507,0.00405003,0.00017706,-0.000
 04053,0.00016423,0.00011218,-0.00008270,0.00044874,0.00003391,-0.00002
 411,-0.00000446,0.00001941,-0.00000293,0.00000901,-0.06732811,0.125798
 57,-0.00007395,-0.00029620,0.00095121,0.00186641,-0.00114726,0.0044738
 2,0.00075950,-0.00033105,0.00118266,-0.00170348,-0.00016653,0.00051507
 ,-0.00239271,0.00101030,-0.00394118,0.01356752,-0.00032430,-0.00265477
 ,-0.00145958,0.00085712,-0.00282963,-0.00141423,-0.00120156,0.00486586
 ,0.00047206,0.00082132,-0.00304949,-0.00000357,-0.00061309,0.00231079,
 -0.00368283,0.00081528,-0.00289695,0.00018423,-0.00004132,0.00019371,0
 .00062364,-0.00051162,0.00145126,0.00071891,-0.00041648,0.00211302,0.0
 0089770,-0.00041653,0.00055864,-0.00001216,0.00002376,-0.00008429,-0.0
 0002006,0.00010529,0.00038308,0.00006692,-0.00004981,-0.00005225,-0.00
 143058,0.00025394,-0.00050860,-0.00167459,0.00005208,-0.00028701,0.000
 01338,0.00002745,-0.00006596,0.00040835,0.00015930,-0.00062344,0.05916
 459,0.05565172,-0.26407466,-0.00040863,0.01292498,-0.03976770,-0.00391
 017,0.00246801,-0.00720716,0.00063304,0.00002646,0.00114754,-0.0371087
 3,0.02518050,-0.08958657,-0.03821359,0.01742376,-0.01723075,0.00080704
 ,-0.00009807,0.00294487,-0.00014864,0.00021914,-0.00075041,-0.00843315
 ,0.00952726,-0.02930514,0.00186371,0.00456091,-0.00946906,-0.00076940,
 0.00020511,-0.00071322,-0.00046208,0.00044878,-0.00204866,-0.00015206,
 0.00011620,0.00002530,-0.00008864,0.00001115,-0.00004006,0.02223237,-0
 .12647931,0.43582264,-0.00055557,-0.00004198,0.00015565,0.00112414,-0.
 00016105,0.00053107,0.00032257,-0.00008197,0.00019724,-0.00042049,0.00
 010047,-0.00045841,-0.00104403,0.00002902,-0.00018497,0.00183867,0.000
 91739,-0.00273393,0.00093665,0.00013700,-0.00050111,-0.00069770,-0.000
 13739,0.00057897,-0.00055397,0.00015079,-0.00043407,-0.00049087,-0.000
 19728,0.00075819,-0.00035864,0.00006072,-0.00022903,0.00009982,-0.0000
 2628,0.00009676,0.00031424,-0.00017473,0.00048415,0.00016905,-0.000134
 51,0.00074767,0.00037259,-0.00017704,0.00023298,-0.00000113,0.00000906
 ,-0.00003499,-0.00000913,0.00004060,0.00016927,0.00002994,-0.00002036,
 -0.00002103,-0.00043172,0.00009010,-0.00017224,-0.00053921,0.00001140,
 -0.00007841,0.00000106,0.00000997,-0.00002487,0.00016766,0.00004583,-0
 .00018277,-0.04023722,0.01078547,-0.03458120,-0.24704304,0.03121635,-0
 .05802235,-0.09117307,0.00405716,0.01192880,0.00238207,0.00057856,0.00
 533638,-0.00841627,0.00010852,0.03336342,-0.00406091,-0.00352714,0.000
 69252,0.00412326,0.00305713,-0.01084856,-0.00005588,-0.00006753,-0.000
 15139,-0.00372614,-0.00069873,0.00484390,-0.00503633,-0.00083585,-0.00
 187562,-0.00034979,0.00008650,-0.00031780,-0.00023040,0.00017667,-0.00
 076976,-0.00005942,0.00004635,0.00001035,-0.00003842,0.00000602,-0.000
 01726,0.01006795,-0.00007368,0.00424150,0.37273633,0.00015505,0.000059
 31,-0.00015049,-0.00031802,0.00011664,-0.00017158,0.00001149,-0.000010
 37,0.00005789,-0.00007653,-0.00011389,-0.00000380,0.00036329,-0.000345
 56,0.00020374,-0.00138057,0.00058210,0.00049832,-0.00015503,-0.0000859
 9,0.00018803,0.00031201,0.00017864,-0.00037740,0.00012862,-0.00016863,
 0.00008982,0.00009529,0.00008940,-0.00024991,0.00024415,-0.00007486,0.
 00010477,-0.00002579,0.00000546,-0.00002432,-0.00007887,0.00004454,-0.
 00013872,-0.00004623,0.00004220,-0.00019594,-0.00009841,0.00004324,-0.
 00006066,0.00000009,-0.00000313,0.00000863,0.00000096,-0.00001419,-0.0
 0004264,-0.00000746,0.00000623,0.00000554,0.00009083,-0.00001282,0.000
 04622,0.00017137,0.00000190,0.00002339,-0.00000090,-0.00000377,0.00000
 770,-0.00004344,-0.00001651,0.00005016,-0.00283291,0.00273400,0.002424
 91,0.03308463,-0.04122614,0.01674487,0.00641375,-0.06136708,-0.0080935
 2,0.00411959,0.00710482,-0.03144945,-0.00111128,0.00281926,0.02517727,
 -0.00501472,-0.00096516,0.00098487,0.00943886,0.00360682,0.00882243,-0
 .00008728,-0.00336821,-0.00155721,0.00127086,0.00285945,0.00333977,0.0
 0153044,0.00491743,0.00093891,0.00008683,-0.00001928,0.00007739,0.0000
 5630,-0.00004061,0.00020558,0.00001541,-0.00001128,-0.00000216,0.00000
 975,-0.00000157,0.00000431,-0.00047383,0.00010470,-0.00607522,-0.04488
 343,0.07767399,-0.00071944,-0.00013642,0.00049853,0.00157537,-0.000013
 03,0.00000087,0.00018712,0.00001644,-0.00009325,-0.00007341,0.00001098
 ,-0.00006530,-0.00069854,0.00012175,-0.00064975,0.00359756,0.00040999,
 -0.00100613,0.00074602,0.00020551,-0.00081836,-0.00115488,-0.00026049,
 0.00112337,-0.00109061,0.00005184,-0.00021344,-0.00045165,-0.00025648,
 0.00102610,-0.00060742,0.00007024,-0.00041992,0.00011063,-0.00002768,0
 .00008780,0.00026855,-0.00017474,0.00050035,0.00020589,-0.00013082,0.0
 0069791,0.00035696,-0.00017144,0.00021803,-0.00000020,0.00000901,-0.00
 003017,-0.00000180,0.00004007,0.00013878,0.00002730,-0.00001787,-0.000
 01896,-0.00040000,0.00008292,-0.00015389,-0.00058848,0.00001628,-0.000
 08465,0.00000055,0.00000933,-0.00002900,0.00015878,0.00004672,-0.00018
 933,0.00309991,-0.00127191,-0.00266599,-0.09991887,0.02719279,-0.14229
 118,0.04319927,-0.01194342,-0.18786287,0.00670695,-0.00574576,-0.03361
 112,0.00515431,0.00468872,-0.03973570,0.00532246,0.00264695,0.00100050
 ,-0.04121814,0.00834121,-0.02214253,0.00081625,-0.00126868,0.00233288,
 -0.00024851,0.00176989,-0.00278337,-0.00512622,0.00192927,-0.00368146,
 -0.00031723,0.00007692,-0.00027157,-0.00022310,0.00016439,-0.00071274,
 -0.00005605,0.00004505,0.00000857,-0.00003608,0.00000511,-0.00001567,0
 .00004492,-0.00223397,0.01300850,0.07833573,-0.02361350,0.44678800,-0.
 00001606,-0.00000276,0.00001608,0.00007503,-0.00009813,0.00039434,0.00
 007366,-0.00002277,0.00008394,-0.00016095,0.00000742,-0.00007342,-0.00
 025956,0.00012432,-0.00034183,0.00074951,0.00005821,0.00008871,0.00019
 608,0.00008248,-0.00023208,-0.00020821,-0.00018146,0.00006529,0.000077
 21,0.00006072,-0.00025328,-0.00007624,-0.00007383,0.00017354,0.0003257
 7,0.00027599,-0.00002995,0.00001445,-0.00000180,0.00001573,0.00005031,
 -0.00003647,0.00009994,0.00004311,-0.00002910,0.00015417,0.00006665,-0
 .00003033,0.00004194,-0.00000095,0.00000188,-0.00000653,-0.00000224,0.
 00000902,0.00003069,0.00000510,-0.00000418,-0.00000409,-0.00009564,0.0
 0001739,-0.00003776,-0.00011594,0.00000059,-0.00002025,0.00000049,0.00
 000327,-0.00000439,0.00003307,0.00001231,-0.00003842,-0.00061846,-0.00
 079039,0.00628584,-0.00029263,0.00002930,-0.00061827,0.00299632,-0.029
 05995,-0.00963062,-0.00427643,-0.00300154,0.00245800,-0.04781393,0.019
 58773,0.00952466,0.00114047,0.00596192,0.00287920,0.00004648,0.0001189
 8,0.00003149,0.00001180,-0.00001490,-0.00002903,-0.00069679,-0.0001528
 0,-0.00069826,0.00013226,-0.00004031,-0.00050645,-0.00005957,0.0000153
 8,-0.00005603,-0.00003541,0.00003389,-0.00015205,-0.00001129,0.0000083
 2,0.00000187,-0.00000661,0.00000079,-0.00000307,-0.01714211,0.03425217
 ,-0.00421318,0.00203939,0.00241376,-0.00020455,0.06276100,0.00000616,0
 .00000285,-0.00000208,-0.00003025,0.00007960,-0.00033205,-0.00005682,0
 .00001556,-0.00006451,0.00010651,-0.00002057,0.00005692,0.00021068,-0.
 00007185,0.00029145,-0.00050058,-0.00000862,-0.00012226,-0.00015086,-0
 .00005122,0.00014235,0.00014061,0.00008790,-0.00001120,-0.00008593,-0.
 00004370,0.00020687,0.00005444,0.00004996,-0.00010631,-0.00024020,-0.0
 0012689,0.00001472,-0.00001035,-0.00000038,-0.00001270,-0.00004082,0.0
 0002581,-0.00007212,-0.00002874,0.00002324,-0.00011569,-0.00005051,0.0
 0002141,-0.00003236,0.00000071,-0.00000161,0.00000499,0.00000201,-0.00
 000750,-0.00002570,-0.00000386,0.00000376,0.00000326,0.00007002,-0.000
 01146,0.00002617,0.00008150,0.00000049,0.00001407,-0.00000054,-0.00000
 257,0.00000307,-0.00002440,-0.00001006,0.00002810,0.00050056,0.0004333
 4,-0.00332431,0.00053254,-0.00054238,0.00075501,-0.00037845,-0.0178034
 4,-0.00757644,-0.00292502,-0.00035244,0.00073442,0.02022991,-0.2789113
 9,-0.07484859,-0.00090349,0.00132385,-0.00046845,0.00009959,-0.0000742
 7,0.00029466,-0.00001430,-0.00002827,0.00001373,0.00039419,-0.00015060
 ,0.00055242,-0.00021824,-0.00002167,0.00020465,0.00004646,-0.00001132,
 0.00004494,0.00002658,-0.00002418,0.00011618,0.00000836,-0.00000583,-0
 .00000117,0.00000506,-0.00000076,0.00000245,0.01293323,-0.01032323,0.0
 0538141,0.00093887,0.00242047,-0.00050848,-0.03031063,0.30372482,-0.00
 000090,0.00001143,-0.00001678,-0.00005376,0.00000329,0.00001022,-0.000
 03288,0.00000450,-0.00003683,0.00005335,0.00000839,-0.00004512,-0.0000
 8256,0.00001536,-0.00002204,0.00005418,0.00009825,0.00018911,0.0000893
 9,-0.00002163,0.00003606,-0.00005079,-0.00000778,-0.00005974,0.0000273
 8,-0.00000692,0.00000499,-0.00000903,0.00002901,-0.00003135,0.00016048
 ,-0.00000684,-0.00000504,-0.00000311,-0.00000031,-0.00000255,-0.000005
 72,0.00000597,-0.00002346,-0.00001813,0.00000580,-0.00002887,-0.000011
 49,0.00000432,-0.00000704,0.00000002,-0.00000043,0.00000099,-0.0000002
 9,-0.00000225,-0.00000482,-0.00000088,0.00000082,0.00000078,0.00003272
 ,0.00000173,0.00000876,0.00002432,0.00000141,0.00000592,-0.00000030,-0
 .00000125,0.00000096,-0.00000555,-0.00000587,0.00001116,-0.00039991,0.
 00103669,0.00351204,-0.00072692,-0.00034415,-0.00041978,0.00133427,0.0
 0791690,0.00190793,0.00094890,0.00135048,0.00045054,0.01111680,-0.0795
 9288,-0.08100267,0.00195682,-0.02914843,-0.00693361,0.00009732,0.00006
 891,-0.00006089,0.00000285,-0.00001560,-0.00001757,-0.00033158,-0.0002
 1937,-0.00059194,-0.00001896,-0.00019004,0.00010288,0.00001011,-0.0000
 0214,0.00000879,0.00000732,-0.00000445,0.00002540,0.00000185,-0.000001
 22,-0.00000013,0.00000112,-0.00000019,0.00000049,-0.00909777,0.0204327
 4,0.00300767,-0.00003447,0.00037593,0.00235610,-0.00482031,0.07861270,
 0.07760467,-0.00001321,0.00000848,-0.00002397,0.00002688,-0.00004571,0
 .00018892,0.00007166,-0.00001560,0.00006010,-0.00011909,0.00002874,-0.
 00007723,-0.00012007,0.00002812,-0.00017335,0.00020460,-0.00005597,0.0
 0016197,0.00022782,0.00002380,-0.00011040,-0.00022684,0.00000573,0.000
 00009,0.00003742,0.00003117,-0.00012216,-0.00006927,-0.00002297,0.0000
 8175,0.00025926,-0.00000709,-0.00005908,0.00001038,-0.00000203,0.00000
 906,0.00003340,-0.00002036,0.00005441,0.00002105,-0.00001723,0.0000872
 6,0.00004018,-0.00001863,0.00002540,-0.00000045,0.00000106,-0.00000392
 ,-0.00000155,0.00000466,0.00001887,0.00000334,-0.00000263,-0.00000246,
 -0.00005451,0.00000865,-0.00001944,-0.00005763,0.00000190,-0.00001063,
 -0.00000027,0.00000133,-0.00000236,0.00002093,0.00000620,-0.00002008,0
 .00007383,-0.00067539,0.00272313,0.00095594,-0.00008219,0.00191808,-0.
 23969720,0.08599115,-0.09536496,-0.00100788,0.00047281,-0.00048029,-0.
 01674364,0.01330535,-0.01079290,0.00022733,0.00012400,0.00057655,0.000
 35968,0.00003879,0.00024452,-0.00000511,0.00000605,-0.00002152,-0.0000
 8983,0.00006549,-0.00010435,0.00003807,0.00007119,-0.00012922,-0.00003
 860,0.00000986,-0.00003572,-0.00002360,0.00001930,-0.00008847,-0.00000
 660,0.00000500,0.00000119,-0.00000406,0.00000077,-0.00000198,-0.005655
 64,-0.00307821,-0.00074488,0.00880400,-0.00337862,0.00322065,0.0010509
 0,-0.00041402,-0.00021388,0.25146838,0.00000359,0.00000344,-0.00001148
 ,-0.00002022,-0.00000333,0.00000756,-0.00000132,0.00000136,-0.00000336
 ,-0.00001348,0.00000139,-0.00000961,-0.00000949,0.00000205,-0.00001793
 ,-0.00002535,-0.00004361,0.00009117,0.00006207,0.00000807,-0.00003943,
 -0.00011527,0.00001994,-0.00000564,0.00001142,0.00000250,-0.00000408,-
 0.00001338,-0.00000259,0.00001377,0.00015020,-0.00001013,-0.00003403,-
 0.00000142,0.00000048,-0.00000150,-0.00000608,0.00000318,-0.00000794,-
 0.00000280,0.00000101,-0.00001106,-0.00000581,0.00000277,-0.00000358,-
 0.00000008,-0.00000003,0.00000060,-0.00000018,0.,-0.00000252,-0.000000
 51,0.00000023,0.00000026,0.00000702,0.00000030,0.00000200,0.00000729,-
 0.00000049,0.00000112,-0.00000012,0.00000003,0.00000027,-0.00000168,-0
 .00000117,0.00000346,-0.00016309,-0.00048321,0.00092525,-0.00117582,0.
 00072077,-0.00101630,0.08734419,-0.09370357,0.04379041,0.02537827,-0.0
 0937606,0.01187198,-0.01343662,0.00792308,-0.00872512,0.00073975,0.000
 48082,0.00027540,-0.00001576,0.00015389,-0.00000332,0.00001636,0.00001
 962,-0.00000429,0.00001457,0.00000153,-0.00015153,-0.00000589,-0.00001
 007,-0.00004241,0.00000601,-0.00000164,0.00000526,0.00000365,-0.000002
 82,0.00001128,0.00000075,-0.00000074,-0.00000029,0.00000062,-0.0000002
 0,0.00000027,-0.00566297,-0.00046940,-0.00010285,-0.00142101,0.0024384
 6,-0.00017667,0.00077553,0.00039314,-0.00041289,-0.09242295,0.09193101
 ,-0.00003766,-0.00000943,0.00003380,0.00010489,0.00000557,-0.00002755,
 0.00000686,-0.00000016,0.00000424,-0.00000461,-0.00000928,0.00001086,-
 0.00001711,0.00000279,0.00001248,0.00014329,0.00006952,-0.00021144,-0.
 00003462,0.00000464,-0.00001265,0.00003154,-0.00002625,0.00008519,-0.0
 0008479,0.00000100,-0.00000573,-0.00000740,-0.00000982,0.00004129,-0.0
 0015427,0.00000541,-0.00000055,0.00000553,-0.00000140,0.00000491,0.000
 01430,-0.00001022,0.00002856,0.00001292,-0.00000798,0.00003935,0.00001
 923,-0.00000909,0.00001220,-0.00000005,0.00000049,-0.00000166,-0.00000
 035,0.00000228,0.00000804,0.00000157,-0.00000128,-0.00000115,-0.000025
 09,0.00000448,-0.00000844,-0.00003156,0.00000136,-0.00000537,-0.000000
 07,0.00000053,-0.00000111,0.00000789,0.00000330,-0.00001143,0.00067828
 ,0.00059363,-0.00213484,0.00399575,0.00095996,-0.00477813,-0.08339795,
 0.03964971,-0.08624122,0.00650658,-0.00216935,0.00560393,0.00324072,-0
 .00540453,0.00482258,-0.00042900,-0.00054318,0.00011119,-0.00167636,-0
 .00005556,-0.00042965,0.00000864,0.00000752,-0.00000418,-0.00028893,-0
 .00005977,0.00013144,-0.00029079,0.00006759,-0.00024358,-0.00001750,0.
 00000443,-0.00001537,-0.00001222,0.00000898,-0.00003997,-0.00000309,0.
 00000241,0.00000051,-0.00000200,0.00000039,-0.00000087,0.00390809,0.00
 118756,0.00223128,-0.03103033,0.01182607,-0.03023995,-0.00037161,0.000
 11986,0.00006474,0.09923130,-0.04621219,0.11116826\\0.00000015,0.00000
 093,0.00000057,0.00000035,0.00000027,-0.00000065,0.00000029,-0.0000001
 5,-0.00000137,-0.00000071,-0.00000059,-0.00000045,0.00000080,0.0000003
 3,0.00000098,-0.00000043,0.00000065,-0.00000017,-0.00000025,-0.0000013
 8,0.00000045,-0.00000148,0.00000033,0.00000114,0.00000090,0.00000216,0
 .00000109,-0.00000069,-0.00000165,-0.00000125,-0.00000071,-0.00000110,
 0.00000014,0.00000117,0.00000015,-0.00000080,-0.00000044,-0.00000203,-
 0.00000337,-0.00000007,-0.00000137,-0.00000231,0.00000068,-0.00000057,
 -0.00000265,0.00000165,0.00000022,-0.00000149,0.00000065,-0.00000075,-
 0.00000406,0.00000203,-0.00000111,-0.00000325,0.00000069,-0.00000083,-
 0.00000164,0.00000047,-0.00000228,-0.00000174,-0.00000066,-0.00000347,
 -0.00000322,-0.00000115,-0.00000270,-0.00000186,-0.00000027,0.00000102
 ,0.00000150,-0.00000024,0.00000209,0.00000239,-0.00000118,0.00000142,0
 .00000284,-0.00000168,0.00000107,0.00000327,-0.00000072,0.00000047,0.0
 0000182,-0.00000140,0.,0.00000172,0.00000037,0.00000294,0.00000278,0.0
 0000052,0.00000341,0.00000313,-0.00000013,0.00000150,0.00000184,0.0000
 0048,0.00000213,0.00000193,0.00000098,-0.00000218,-0.00000158,0.000001
 42,-0.00000086,-0.00000059,0.00000018,-0.00000090,-0.00000106,0.000001
 13,-0.00000180,-0.00000279,-0.00000080,0.00000038,0.00000143,-0.000000
 38,0.00000197,0.00000294,-0.00000037,0.00000084,0.00000136,-0.00000116
 ,0.00000143,0.00000300\\\@


 REPARTEE - WHAT YOU THINK OF AFTER YOU BECOME A DEPARTEE.
 Job cpu time:  0 days  9 hours 57 minutes 41.7 seconds.
 File lengths (MBytes):  RWF=   1469 Int=      0 D2E=      0 Chk=     25 Scr=      1
 Normal termination of Gaussian 09 at Tue Sep 19 07:42:32 2023.
