 Entering Gaussian System, Link 0=g16
 Initial command:
 /home/aderezen/G16/AVX2//g16/l1.exe "/lustre/scratch/natrosa/12356854/Gau-71939.inp" -scrdir="/lustre/scratch/natrosa/12356854/"
 Entering Link 1 = /home/aderezen/G16/AVX2//g16/l1.exe PID=     71940.
  
 Copyright (c) 1988-2019, Gaussian, Inc.  All Rights Reserved.
  
 This is part of the Gaussian(R) 16 program.  It is based on
 the Gaussian(R) 09 system (copyright 2009, Gaussian, Inc.),
 the Gaussian(R) 03 system (copyright 2003, Gaussian, Inc.),
 the Gaussian(R) 98 system (copyright 1998, Gaussian, Inc.),
 the Gaussian(R) 94 system (copyright 1995, Gaussian, Inc.),
 the Gaussian 92(TM) system (copyright 1992, Gaussian, Inc.),
 the Gaussian 90(TM) system (copyright 1990, Gaussian, Inc.),
 the Gaussian 88(TM) system (copyright 1988, Gaussian, Inc.),
 the Gaussian 86(TM) system (copyright 1986, Carnegie Mellon
 University), and the Gaussian 82(TM) system (copyright 1983,
 Carnegie Mellon University). Gaussian is a federally registered
 trademark of Gaussian, Inc.
  
 This software contains proprietary and confidential information,
 including trade secrets, belonging to Gaussian, Inc.
  
 This software is provided under written license and may be
 used, copied, transmitted, or stored only in accord with that
 written license.
  
 The following legend is applicable only to US Government
 contracts under FAR:
  
                    RESTRICTED RIGHTS LEGEND
  
 Use, reproduction and disclosure by the US Government is
 subject to restrictions as set forth in subparagraphs (a)
 and (c) of the Commercial Computer Software - Restricted
 Rights clause in FAR 52.227-19.
  
 Gaussian, Inc.
 340 Quinnipiac St., Bldg. 40, Wallingford CT 06492
  
  
 ---------------------------------------------------------------
 Warning -- This program may not be used in any manner that
 competes with the business of Gaussian, Inc. or will provide
 assistance to any competitor of Gaussian, Inc.  The licensee
 of this program is prohibited from giving any competitor of
 Gaussian, Inc. access to this program.  By using this program,
 the user acknowledges that Gaussian, Inc. is engaged in the
 business of creating and licensing software in the field of
 computational chemistry and represents and warrants to the
 licensee that it is not a competitor of Gaussian, Inc. and that
 it will not use this program in any manner prohibited above.
 ---------------------------------------------------------------
  

 Cite this work as:
 Gaussian 16, Revision C.01,
 M. J. Frisch, G. W. Trucks, H. B. Schlegel, G. E. Scuseria, 
 M. A. Robb, J. R. Cheeseman, G. Scalmani, V. Barone, 
 G. A. Petersson, H. Nakatsuji, X. Li, M. Caricato, A. V. Marenich, 
 J. Bloino, B. G. Janesko, R. Gomperts, B. Mennucci, H. P. Hratchian, 
 J. V. Ortiz, A. F. Izmaylov, J. L. Sonnenberg, D. Williams-Young, 
 F. Ding, F. Lipparini, F. Egidi, J. Goings, B. Peng, A. Petrone, 
 T. Henderson, D. Ranasinghe, V. G. Zakrzewski, J. Gao, N. Rega, 
 G. Zheng, W. Liang, M. Hada, M. Ehara, K. Toyota, R. Fukuda, 
 J. Hasegawa, M. Ishida, T. Nakajima, Y. Honda, O. Kitao, H. Nakai, 
 T. Vreven, K. Throssell, J. A. Montgomery, Jr., J. E. Peralta, 
 F. Ogliaro, M. J. Bearpark, J. J. Heyd, E. N. Brothers, K. N. Kudin, 
 V. N. Staroverov, T. A. Keith, R. Kobayashi, J. Normand, 
 K. Raghavachari, A. P. Rendell, J. C. Burant, S. S. Iyengar, 
 J. Tomasi, M. Cossi, J. M. Millam, M. Klene, C. Adamo, R. Cammi, 
 J. W. Ochterski, R. L. Martin, K. Morokuma, O. Farkas, 
 J. B. Foresman, and D. J. Fox, Gaussian, Inc., Wallingford CT, 2019.
 
 ******************************************
 Gaussian 16:  ES64L-G16RevC.01  3-Jul-2019
                13-Nov-2023 
 ******************************************
 %chk=SUB-12-OPT-FREQ.chk
 %nprocshared=24
 Will use up to   24 processors via shared memory.
 %mem=5500MB
 ----------------------------------------------------
 # opt=tight freq b3lyp/6-31+g(d,p) geom=connectivity
 ----------------------------------------------------
 1/7=10,18=20,19=15,26=3,38=1,57=2/1,3;
 2/9=110,12=2,17=6,18=5,40=1/2;
 3/5=1,6=6,7=111,11=2,25=1,30=1,71=1,74=-5/1,2,3;
 4//1;
 5/5=2,38=5/2;
 6/7=2,8=2,9=2,10=2,28=1/1;
 7//1,2,3,16;
 1/7=10,18=20,19=15,26=3/3(2);
 2/9=110/2;
 99//99;
 2/9=110/2;
 3/5=1,6=6,7=111,11=2,25=1,30=1,71=1,74=-5/1,2,3;
 4/5=5,16=3,69=1/1;
 5/5=2,38=5/2;
 7//1,2,3,16;
 1/7=10,18=20,19=15,26=3/3(-5);
 2/9=110/2;
 6/7=2,8=2,9=2,10=2,19=2,28=1/1;
 99/9=1/99;
 -------
 Energy:
 -------
 Symbolic Z-matrix:
 Charge =  0 Multiplicity = 1
 N                     1.21455  -1.7341    0.05974 
 C                    -0.20904  -1.80841  -0.0189 
 C                     1.68652  -0.42993  -0.01973 
 C                     0.59712   0.40926  -0.13113 
 C                    -0.59712  -0.40979  -0.13094 
 C                    -1.68651   0.42939  -0.01969 
 C                     0.209     1.80789  -0.01912 
 N                    -1.21457   1.73357   0.0594 
 O                    -0.83108  -2.86167  -0.00201 
 O                     0.83105   2.86116  -0.00214 
 H                    -1.79083   2.55852  -0.037 
 H                     1.79074  -2.55902  -0.03724 
 C                    -6.04948  -1.39718  -1.21793 
 C                    -5.12978  -0.61049  -0.51522 
 C                    -3.74767  -0.74665  -0.77901 
 C                    -3.26356  -1.63705  -1.7365 
 C                    -4.19916  -2.41001  -2.42579 
 C                    -5.57629  -2.29724  -2.1711 
 H                    -7.11437  -1.30368  -1.02645 
 H                    -2.20522  -1.75099  -1.92692 
 H                    -3.84815  -3.11993  -3.16833 
 H                    -6.27625  -2.9175   -2.7224 
 N                    -3.04114   0.17697   0.03149 
 C                    -3.98216   0.88376   0.81837 
 C                    -5.27873   0.41686   0.49888 
 C                    -3.77143   1.84116   1.81459 
 C                    -6.38831   0.94768   1.1659 
 C                    -4.89451   2.35805   2.46477 
 H                    -2.77661   2.16461   2.09822 
 C                    -6.19053   1.92407   2.14158 
 H                    -7.38919   0.5972    0.93205 
 H                    -4.75601   3.10402   3.24136 
 H                    -7.04321   2.34458   2.66553 
 C                     6.38866  -0.94759   1.16499 
 C                     5.27884  -0.41678   0.49836 
 C                     3.98251  -0.8846    0.81733 
 C                     3.77222  -1.84289   1.81281 
 C                     4.89552  -2.35973   2.46264 
 C                     6.19134  -1.92488   2.13984 
 H                     7.38935  -0.59634   0.93146 
 H                     2.77758  -2.16703   2.09624 
 H                     4.75735  -3.10637   3.23864 
 H                     7.04418  -2.3454    2.66351 
 N                     3.04116  -0.17773   0.03079 
 C                     3.74734   0.74706  -0.7787 
 C                     5.1295    0.61138  -0.51485 
 C                     3.263     1.6379   -1.73565 
 C                     6.04892   1.39903  -1.21681 
 C                     4.19834   2.41186  -2.42421 
 H                     2.20467   1.75147  -1.92623 
 C                     5.57546   2.29959  -2.16938 
 H                     7.11383   1.30589  -1.02524 
 H                     3.84706   3.12213  -3.16628 
 H                     6.27522   2.92061  -2.72007 
 

 GradGradGradGradGradGradGradGradGradGradGradGradGradGradGradGradGradGrad
 Berny optimization.
 Initialization pass.
                           ----------------------------
                           !    Initial Parameters    !
                           ! (Angstroms and Degrees)  !
 --------------------------                            --------------------------
 ! Name  Definition              Value          Derivative Info.                !
 --------------------------------------------------------------------------------
 ! R1    R(1,2)                  1.4277         estimate D2E/DX2                !
 ! R2    R(1,3)                  1.3892         estimate D2E/DX2                !
 ! R3    R(1,12)                 1.0109         estimate D2E/DX2                !
 ! R4    R(2,5)                  1.4558         estimate D2E/DX2                !
 ! R5    R(2,9)                  1.2233         estimate D2E/DX2                !
 ! R6    R(3,4)                  1.3797         estimate D2E/DX2                !
 ! R7    R(3,44)                 1.3788         estimate D2E/DX2                !
 ! R8    R(4,5)                  1.4481         estimate D2E/DX2                !
 ! R9    R(4,7)                  1.4558         estimate D2E/DX2                !
 ! R10   R(5,6)                  1.3796         estimate D2E/DX2                !
 ! R11   R(6,8)                  1.3892         estimate D2E/DX2                !
 ! R12   R(6,23)                 1.3789         estimate D2E/DX2                !
 ! R13   R(7,8)                  1.4277         estimate D2E/DX2                !
 ! R14   R(7,10)                 1.2234         estimate D2E/DX2                !
 ! R15   R(8,11)                 1.0109         estimate D2E/DX2                !
 ! R16   R(13,14)                1.3995         estimate D2E/DX2                !
 ! R17   R(13,18)                1.3938         estimate D2E/DX2                !
 ! R18   R(13,19)                1.086          estimate D2E/DX2                !
 ! R19   R(14,15)                1.4136         estimate D2E/DX2                !
 ! R20   R(14,25)                1.4512         estimate D2E/DX2                !
 ! R21   R(15,16)                1.3943         estimate D2E/DX2                !
 ! R22   R(15,23)                1.4175         estimate D2E/DX2                !
 ! R23   R(16,17)                1.3957         estimate D2E/DX2                !
 ! R24   R(16,20)                1.0814         estimate D2E/DX2                !
 ! R25   R(17,18)                1.405          estimate D2E/DX2                !
 ! R26   R(17,21)                1.0856         estimate D2E/DX2                !
 ! R27   R(18,22)                1.0856         estimate D2E/DX2                !
 ! R28   R(23,24)                1.4157         estimate D2E/DX2                !
 ! R29   R(24,25)                1.4146         estimate D2E/DX2                !
 ! R30   R(24,26)                1.3977         estimate D2E/DX2                !
 ! R31   R(25,27)                1.3992         estimate D2E/DX2                !
 ! R32   R(26,28)                1.3969         estimate D2E/DX2                !
 ! R33   R(26,29)                1.0838         estimate D2E/DX2                !
 ! R34   R(27,30)                1.3944         estimate D2E/DX2                !
 ! R35   R(27,31)                1.086          estimate D2E/DX2                !
 ! R36   R(28,30)                1.4044         estimate D2E/DX2                !
 ! R37   R(28,32)                1.0857         estimate D2E/DX2                !
 ! R38   R(30,33)                1.0855         estimate D2E/DX2                !
 ! R39   R(34,35)                1.3992         estimate D2E/DX2                !
 ! R40   R(34,39)                1.3944         estimate D2E/DX2                !
 ! R41   R(34,40)                1.086          estimate D2E/DX2                !
 ! R42   R(35,36)                1.4146         estimate D2E/DX2                !
 ! R43   R(35,46)                1.4512         estimate D2E/DX2                !
 ! R44   R(36,37)                1.3977         estimate D2E/DX2                !
 ! R45   R(36,44)                1.4158         estimate D2E/DX2                !
 ! R46   R(37,38)                1.3969         estimate D2E/DX2                !
 ! R47   R(37,41)                1.0838         estimate D2E/DX2                !
 ! R48   R(38,39)                1.4044         estimate D2E/DX2                !
 ! R49   R(38,42)                1.0857         estimate D2E/DX2                !
 ! R50   R(39,43)                1.0855         estimate D2E/DX2                !
 ! R51   R(44,45)                1.4175         estimate D2E/DX2                !
 ! R52   R(45,46)                1.4137         estimate D2E/DX2                !
 ! R53   R(45,47)                1.3943         estimate D2E/DX2                !
 ! R54   R(46,48)                1.3995         estimate D2E/DX2                !
 ! R55   R(47,49)                1.3957         estimate D2E/DX2                !
 ! R56   R(47,50)                1.0813         estimate D2E/DX2                !
 ! R57   R(48,51)                1.3938         estimate D2E/DX2                !
 ! R58   R(48,52)                1.086          estimate D2E/DX2                !
 ! R59   R(49,51)                1.405          estimate D2E/DX2                !
 ! R60   R(49,53)                1.0856         estimate D2E/DX2                !
 ! R61   R(51,54)                1.0856         estimate D2E/DX2                !
 ! A1    A(2,1,3)              112.6114         estimate D2E/DX2                !
 ! A2    A(2,1,12)             121.3717         estimate D2E/DX2                !
 ! A3    A(3,1,12)             124.5371         estimate D2E/DX2                !
 ! A4    A(1,2,5)              102.7115         estimate D2E/DX2                !
 ! A5    A(1,2,9)              123.4406         estimate D2E/DX2                !
 ! A6    A(5,2,9)              133.8419         estimate D2E/DX2                !
 ! A7    A(1,3,4)              107.9014         estimate D2E/DX2                !
 ! A8    A(1,3,44)             120.2245         estimate D2E/DX2                !
 ! A9    A(4,3,44)             131.8713         estimate D2E/DX2                !
 ! A10   A(3,4,5)              107.8868         estimate D2E/DX2                !
 ! A11   A(3,4,7)              142.0626         estimate D2E/DX2                !
 ! A12   A(5,4,7)              108.8753         estimate D2E/DX2                !
 ! A13   A(2,5,4)              108.8783         estimate D2E/DX2                !
 ! A14   A(2,5,6)              142.0616         estimate D2E/DX2                !
 ! A15   A(4,5,6)              107.8887         estimate D2E/DX2                !
 ! A16   A(5,6,8)              107.9011         estimate D2E/DX2                !
 ! A17   A(5,6,23)             131.8648         estimate D2E/DX2                !
 ! A18   A(8,6,23)             120.231          estimate D2E/DX2                !
 ! A19   A(4,7,8)              102.7128         estimate D2E/DX2                !
 ! A20   A(4,7,10)             133.8404         estimate D2E/DX2                !
 ! A21   A(8,7,10)             123.4408         estimate D2E/DX2                !
 ! A22   A(6,8,7)              112.6117         estimate D2E/DX2                !
 ! A23   A(6,8,11)             124.543          estimate D2E/DX2                !
 ! A24   A(7,8,11)             121.3787         estimate D2E/DX2                !
 ! A25   A(14,13,18)           118.9009         estimate D2E/DX2                !
 ! A26   A(14,13,19)           120.4953         estimate D2E/DX2                !
 ! A27   A(18,13,19)           120.6032         estimate D2E/DX2                !
 ! A28   A(13,14,15)           119.6483         estimate D2E/DX2                !
 ! A29   A(13,14,25)           132.9513         estimate D2E/DX2                !
 ! A30   A(15,14,25)           107.3937         estimate D2E/DX2                !
 ! A31   A(14,15,16)           121.9468         estimate D2E/DX2                !
 ! A32   A(14,15,23)           108.5344         estimate D2E/DX2                !
 ! A33   A(16,15,23)           129.4746         estimate D2E/DX2                !
 ! A34   A(15,16,17)           117.3927         estimate D2E/DX2                !
 ! A35   A(15,16,20)           121.8734         estimate D2E/DX2                !
 ! A36   A(17,16,20)           120.7146         estimate D2E/DX2                !
 ! A37   A(16,17,18)           121.5381         estimate D2E/DX2                !
 ! A38   A(16,17,21)           118.8954         estimate D2E/DX2                !
 ! A39   A(18,17,21)           119.564          estimate D2E/DX2                !
 ! A40   A(13,18,17)           120.5691         estimate D2E/DX2                !
 ! A41   A(13,18,22)           119.8248         estimate D2E/DX2                !
 ! A42   A(17,18,22)           119.6062         estimate D2E/DX2                !
 ! A43   A(6,23,15)            125.9967         estimate D2E/DX2                !
 ! A44   A(6,23,24)            125.6083         estimate D2E/DX2                !
 ! A45   A(15,23,24)           108.168          estimate D2E/DX2                !
 ! A46   A(23,24,25)           108.598          estimate D2E/DX2                !
 ! A47   A(23,24,26)           129.6378         estimate D2E/DX2                !
 ! A48   A(25,24,26)           121.685          estimate D2E/DX2                !
 ! A49   A(14,25,24)           107.3012         estimate D2E/DX2                !
 ! A50   A(14,25,27)           133.0843         estimate D2E/DX2                !
 ! A51   A(24,25,27)           119.5999         estimate D2E/DX2                !
 ! A52   A(24,26,28)           117.6465         estimate D2E/DX2                !
 ! A53   A(24,26,29)           121.9605         estimate D2E/DX2                !
 ! A54   A(28,26,29)           120.3797         estimate D2E/DX2                !
 ! A55   A(25,27,30)           119.1252         estimate D2E/DX2                !
 ! A56   A(25,27,31)           120.3829         estimate D2E/DX2                !
 ! A57   A(30,27,31)           120.4899         estimate D2E/DX2                !
 ! A58   A(26,28,30)           121.365          estimate D2E/DX2                !
 ! A59   A(26,28,32)           118.9871         estimate D2E/DX2                !
 ! A60   A(30,28,32)           119.6456         estimate D2E/DX2                !
 ! A61   A(27,30,28)           120.5484         estimate D2E/DX2                !
 ! A62   A(27,30,33)           119.8382         estimate D2E/DX2                !
 ! A63   A(28,30,33)           119.609          estimate D2E/DX2                !
 ! A64   A(35,34,39)           119.1251         estimate D2E/DX2                !
 ! A65   A(35,34,40)           120.3803         estimate D2E/DX2                !
 ! A66   A(39,34,40)           120.4926         estimate D2E/DX2                !
 ! A67   A(34,35,36)           119.6015         estimate D2E/DX2                !
 ! A68   A(34,35,46)           133.0804         estimate D2E/DX2                !
 ! A69   A(36,35,46)           107.3035         estimate D2E/DX2                !
 ! A70   A(35,36,37)           121.6833         estimate D2E/DX2                !
 ! A71   A(35,36,44)           108.5975         estimate D2E/DX2                !
 ! A72   A(37,36,44)           129.6402         estimate D2E/DX2                !
 ! A73   A(36,37,38)           117.6473         estimate D2E/DX2                !
 ! A74   A(36,37,41)           121.9628         estimate D2E/DX2                !
 ! A75   A(38,37,41)           120.3766         estimate D2E/DX2                !
 ! A76   A(37,38,39)           121.3649         estimate D2E/DX2                !
 ! A77   A(37,38,42)           118.9875         estimate D2E/DX2                !
 ! A78   A(39,38,42)           119.6453         estimate D2E/DX2                !
 ! A79   A(34,39,38)           120.5476         estimate D2E/DX2                !
 ! A80   A(34,39,43)           119.8405         estimate D2E/DX2                !
 ! A81   A(38,39,43)           119.6074         estimate D2E/DX2                !
 ! A82   A(3,44,36)            125.6094         estimate D2E/DX2                !
 ! A83   A(3,44,45)            126.0055         estimate D2E/DX2                !
 ! A84   A(36,44,45)           108.1655         estimate D2E/DX2                !
 ! A85   A(44,45,46)           108.5355         estimate D2E/DX2                !
 ! A86   A(44,45,47)           129.4769         estimate D2E/DX2                !
 ! A87   A(46,45,47)           121.9426         estimate D2E/DX2                !
 ! A88   A(35,46,45)           107.3931         estimate D2E/DX2                !
 ! A89   A(35,46,48)           132.9496         estimate D2E/DX2                !
 ! A90   A(45,46,48)           119.6506         estimate D2E/DX2                !
 ! A91   A(45,47,49)           117.3949         estimate D2E/DX2                !
 ! A92   A(45,47,50)           121.8744         estimate D2E/DX2                !
 ! A93   A(49,47,50)           120.7114         estimate D2E/DX2                !
 ! A94   A(46,48,51)           118.9017         estimate D2E/DX2                !
 ! A95   A(46,48,52)           120.4954         estimate D2E/DX2                !
 ! A96   A(51,48,52)           120.6022         estimate D2E/DX2                !
 ! A97   A(47,49,51)           121.5389         estimate D2E/DX2                !
 ! A98   A(47,49,53)           118.8938         estimate D2E/DX2                !
 ! A99   A(51,49,53)           119.5647         estimate D2E/DX2                !
 ! A100  A(48,51,49)           120.5671         estimate D2E/DX2                !
 ! A101  A(48,51,54)           119.8242         estimate D2E/DX2                !
 ! A102  A(49,51,54)           119.6086         estimate D2E/DX2                !
 ! D1    D(3,1,2,5)             -1.0606         estimate D2E/DX2                !
 ! D2    D(3,1,2,9)            178.1603         estimate D2E/DX2                !
 ! D3    D(12,1,2,5)          -167.7784         estimate D2E/DX2                !
 ! D4    D(12,1,2,9)            11.4426         estimate D2E/DX2                !
 ! D5    D(2,1,3,4)              0.9847         estimate D2E/DX2                !
 ! D6    D(2,1,3,44)          -179.553          estimate D2E/DX2                !
 ! D7    D(12,1,3,4)           167.2086         estimate D2E/DX2                !
 ! D8    D(12,1,3,44)          -13.3291         estimate D2E/DX2                !
 ! D9    D(1,2,5,4)              0.743          estimate D2E/DX2                !
 ! D10   D(1,2,5,6)           -164.4215         estimate D2E/DX2                !
 ! D11   D(9,2,5,4)           -178.3556         estimate D2E/DX2                !
 ! D12   D(9,2,5,6)             16.4798         estimate D2E/DX2                !
 ! D13   D(1,3,4,5)             -0.4502         estimate D2E/DX2                !
 ! D14   D(1,3,4,7)            164.7769         estimate D2E/DX2                !
 ! D15   D(44,3,4,5)          -179.8263         estimate D2E/DX2                !
 ! D16   D(44,3,4,7)           -14.5992         estimate D2E/DX2                !
 ! D17   D(1,3,44,36)          -36.0863         estimate D2E/DX2                !
 ! D18   D(1,3,44,45)          137.8819         estimate D2E/DX2                !
 ! D19   D(4,3,44,36)          143.2266         estimate D2E/DX2                !
 ! D20   D(4,3,44,45)          -42.8052         estimate D2E/DX2                !
 ! D21   D(3,4,5,2)             -0.2068         estimate D2E/DX2                !
 ! D22   D(3,4,5,6)            170.2717         estimate D2E/DX2                !
 ! D23   D(7,4,5,2)           -170.6703         estimate D2E/DX2                !
 ! D24   D(7,4,5,6)             -0.1918         estimate D2E/DX2                !
 ! D25   D(3,4,7,8)           -164.4169         estimate D2E/DX2                !
 ! D26   D(3,4,7,10)            16.4813         estimate D2E/DX2                !
 ! D27   D(5,4,7,8)              0.7233         estimate D2E/DX2                !
 ! D28   D(5,4,7,10)          -178.3785         estimate D2E/DX2                !
 ! D29   D(2,5,6,8)            164.7977         estimate D2E/DX2                !
 ! D30   D(2,5,6,23)           -14.5493         estimate D2E/DX2                !
 ! D31   D(4,5,6,8)             -0.4537         estimate D2E/DX2                !
 ! D32   D(4,5,6,23)          -179.8007         estimate D2E/DX2                !
 ! D33   D(5,6,8,7)              0.9749         estimate D2E/DX2                !
 ! D34   D(5,6,8,11)           167.2605         estimate D2E/DX2                !
 ! D35   D(23,6,8,7)          -179.588          estimate D2E/DX2                !
 ! D36   D(23,6,8,11)          -13.3024         estimate D2E/DX2                !
 ! D37   D(5,6,23,15)          -42.9368         estimate D2E/DX2                !
 ! D38   D(5,6,23,24)          143.1945         estimate D2E/DX2                !
 ! D39   D(8,6,23,15)          137.7825         estimate D2E/DX2                !
 ! D40   D(8,6,23,24)          -36.0862         estimate D2E/DX2                !
 ! D41   D(4,7,8,6)             -1.0423         estimate D2E/DX2                !
 ! D42   D(4,7,8,11)          -167.8195         estimate D2E/DX2                !
 ! D43   D(10,7,8,6)           178.1813         estimate D2E/DX2                !
 ! D44   D(10,7,8,11)           11.4041         estimate D2E/DX2                !
 ! D45   D(18,13,14,15)         -0.281          estimate D2E/DX2                !
 ! D46   D(18,13,14,25)        178.6496         estimate D2E/DX2                !
 ! D47   D(19,13,14,15)       -179.9843         estimate D2E/DX2                !
 ! D48   D(19,13,14,25)         -1.0536         estimate D2E/DX2                !
 ! D49   D(14,13,18,17)         -0.2122         estimate D2E/DX2                !
 ! D50   D(14,13,18,22)        179.7777         estimate D2E/DX2                !
 ! D51   D(19,13,18,17)        179.4907         estimate D2E/DX2                !
 ! D52   D(19,13,18,22)         -0.5194         estimate D2E/DX2                !
 ! D53   D(13,14,15,16)          0.7329         estimate D2E/DX2                !
 ! D54   D(13,14,15,23)        178.5284         estimate D2E/DX2                !
 ! D55   D(25,14,15,16)       -178.4469         estimate D2E/DX2                !
 ! D56   D(25,14,15,23)         -0.6515         estimate D2E/DX2                !
 ! D57   D(13,14,25,24)       -178.668          estimate D2E/DX2                !
 ! D58   D(13,14,25,27)          2.7767         estimate D2E/DX2                !
 ! D59   D(15,14,25,24)          0.3582         estimate D2E/DX2                !
 ! D60   D(15,14,25,27)       -178.1972         estimate D2E/DX2                !
 ! D61   D(14,15,16,17)         -0.6515         estimate D2E/DX2                !
 ! D62   D(14,15,16,20)       -179.0652         estimate D2E/DX2                !
 ! D63   D(23,15,16,17)       -177.9432         estimate D2E/DX2                !
 ! D64   D(23,15,16,20)          3.643          estimate D2E/DX2                !
 ! D65   D(14,15,23,6)        -174.0553         estimate D2E/DX2                !
 ! D66   D(14,15,23,24)          0.7011         estimate D2E/DX2                !
 ! D67   D(16,15,23,6)           3.5212         estimate D2E/DX2                !
 ! D68   D(16,15,23,24)        178.2775         estimate D2E/DX2                !
 ! D69   D(15,16,17,18)          0.1431         estimate D2E/DX2                !
 ! D70   D(15,16,17,21)       -179.2752         estimate D2E/DX2                !
 ! D71   D(20,16,17,18)        178.5762         estimate D2E/DX2                !
 ! D72   D(20,16,17,21)         -0.8421         estimate D2E/DX2                !
 ! D73   D(16,17,18,13)          0.287          estimate D2E/DX2                !
 ! D74   D(16,17,18,22)       -179.703          estimate D2E/DX2                !
 ! D75   D(21,17,18,13)        179.7015         estimate D2E/DX2                !
 ! D76   D(21,17,18,22)         -0.2885         estimate D2E/DX2                !
 ! D77   D(6,23,24,25)         174.3087         estimate D2E/DX2                !
 ! D78   D(6,23,24,26)          -8.9419         estimate D2E/DX2                !
 ! D79   D(15,23,24,25)         -0.4732         estimate D2E/DX2                !
 ! D80   D(15,23,24,26)        176.2761         estimate D2E/DX2                !
 ! D81   D(23,24,25,14)          0.0704         estimate D2E/DX2                !
 ! D82   D(23,24,25,27)        178.857          estimate D2E/DX2                !
 ! D83   D(26,24,25,14)       -176.9881         estimate D2E/DX2                !
 ! D84   D(26,24,25,27)          1.7985         estimate D2E/DX2                !
 ! D85   D(23,24,26,28)       -178.2666         estimate D2E/DX2                !
 ! D86   D(23,24,26,29)          0.4127         estimate D2E/DX2                !
 ! D87   D(25,24,26,28)         -1.8876         estimate D2E/DX2                !
 ! D88   D(25,24,26,29)        176.7917         estimate D2E/DX2                !
 ! D89   D(14,25,27,30)        178.0181         estimate D2E/DX2                !
 ! D90   D(14,25,27,31)         -1.4688         estimate D2E/DX2                !
 ! D91   D(24,25,27,30)         -0.3956         estimate D2E/DX2                !
 ! D92   D(24,25,27,31)       -179.8825         estimate D2E/DX2                !
 ! D93   D(24,26,28,30)          0.6327         estimate D2E/DX2                !
 ! D94   D(24,26,28,32)       -179.919          estimate D2E/DX2                !
 ! D95   D(29,26,28,30)       -178.0685         estimate D2E/DX2                !
 ! D96   D(29,26,28,32)          1.3799         estimate D2E/DX2                !
 ! D97   D(25,27,30,28)         -0.8294         estimate D2E/DX2                !
 ! D98   D(25,27,30,33)        179.9362         estimate D2E/DX2                !
 ! D99   D(31,27,30,28)        178.657          estimate D2E/DX2                !
 ! D100  D(31,27,30,33)         -0.5774         estimate D2E/DX2                !
 ! D101  D(26,28,30,27)          0.7193         estimate D2E/DX2                !
 ! D102  D(26,28,30,33)        179.9554         estimate D2E/DX2                !
 ! D103  D(32,28,30,27)       -178.7254         estimate D2E/DX2                !
 ! D104  D(32,28,30,33)          0.5107         estimate D2E/DX2                !
 ! D105  D(39,34,35,36)         -0.398          estimate D2E/DX2                !
 ! D106  D(39,34,35,46)        178.0154         estimate D2E/DX2                !
 ! D107  D(40,34,35,36)       -179.883          estimate D2E/DX2                !
 ! D108  D(40,34,35,46)         -1.4695         estimate D2E/DX2                !
 ! D109  D(35,34,39,38)         -0.8321         estimate D2E/DX2                !
 ! D110  D(35,34,39,43)        179.9375         estimate D2E/DX2                !
 ! D111  D(40,34,39,38)        178.6522         estimate D2E/DX2                !
 ! D112  D(40,34,39,43)         -0.5782         estimate D2E/DX2                !
 ! D113  D(34,35,36,37)          1.805          estimate D2E/DX2                !
 ! D114  D(34,35,36,44)        178.8665         estimate D2E/DX2                !
 ! D115  D(46,35,36,37)       -176.9813         estimate D2E/DX2                !
 ! D116  D(46,35,36,44)          0.0802         estimate D2E/DX2                !
 ! D117  D(34,35,46,45)       -178.1991         estimate D2E/DX2                !
 ! D118  D(34,35,46,48)          2.7822         estimate D2E/DX2                !
 ! D119  D(36,35,46,45)          0.3561         estimate D2E/DX2                !
 ! D120  D(36,35,46,48)       -178.6626         estimate D2E/DX2                !
 ! D121  D(35,36,37,38)         -1.8928         estimate D2E/DX2                !
 ! D122  D(35,36,37,41)        176.782          estimate D2E/DX2                !
 ! D123  D(44,36,37,38)       -178.2753         estimate D2E/DX2                !
 ! D124  D(44,36,37,41)          0.3995         estimate D2E/DX2                !
 ! D125  D(35,36,44,3)         174.3801         estimate D2E/DX2                !
 ! D126  D(35,36,44,45)         -0.4871         estimate D2E/DX2                !
 ! D127  D(37,36,44,3)          -8.8674         estimate D2E/DX2                !
 ! D128  D(37,36,44,45)        176.2654         estimate D2E/DX2                !
 ! D129  D(36,37,38,39)          0.6326         estimate D2E/DX2                !
 ! D130  D(36,37,38,42)       -179.919          estimate D2E/DX2                !
 ! D131  D(41,37,38,39)       -178.0642         estimate D2E/DX2                !
 ! D132  D(41,37,38,42)          1.3842         estimate D2E/DX2                !
 ! D133  D(37,38,39,34)          0.7234         estimate D2E/DX2                !
 ! D134  D(37,38,39,43)        179.9556         estimate D2E/DX2                !
 ! D135  D(42,38,39,34)       -178.7215         estimate D2E/DX2                !
 ! D136  D(42,38,39,43)          0.5108         estimate D2E/DX2                !
 ! D137  D(3,44,45,46)        -174.1279         estimate D2E/DX2                !
 ! D138  D(3,44,45,47)           3.4283         estimate D2E/DX2                !
 ! D139  D(36,44,45,46)          0.7136         estimate D2E/DX2                !
 ! D140  D(36,44,45,47)        178.2698         estimate D2E/DX2                !
 ! D141  D(44,45,46,35)         -0.6579         estimate D2E/DX2                !
 ! D142  D(44,45,46,48)        178.5156         estimate D2E/DX2                !
 ! D143  D(47,45,46,35)       -178.4351         estimate D2E/DX2                !
 ! D144  D(47,45,46,48)          0.7384         estimate D2E/DX2                !
 ! D145  D(44,45,47,49)       -177.9272         estimate D2E/DX2                !
 ! D146  D(44,45,47,50)          3.6603         estimate D2E/DX2                !
 ! D147  D(46,45,47,49)         -0.6578         estimate D2E/DX2                !
 ! D148  D(46,45,47,50)       -179.0703         estimate D2E/DX2                !
 ! D149  D(35,46,48,51)        178.64           estimate D2E/DX2                !
 ! D150  D(35,46,48,52)         -1.0631         estimate D2E/DX2                !
 ! D151  D(45,46,48,51)         -0.2824         estimate D2E/DX2                !
 ! D152  D(45,46,48,52)       -179.9856         estimate D2E/DX2                !
 ! D153  D(45,47,49,51)          0.1465         estimate D2E/DX2                !
 ! D154  D(45,47,49,53)       -179.2737         estimate D2E/DX2                !
 ! D155  D(50,47,49,51)        178.5784         estimate D2E/DX2                !
 ! D156  D(50,47,49,53)         -0.8417         estimate D2E/DX2                !
 ! D157  D(46,48,51,49)         -0.2138         estimate D2E/DX2                !
 ! D158  D(46,48,51,54)        179.776          estimate D2E/DX2                !
 ! D159  D(52,48,51,49)        179.4891         estimate D2E/DX2                !
 ! D160  D(52,48,51,54)         -0.5212         estimate D2E/DX2                !
 ! D161  D(47,49,51,48)          0.2875         estimate D2E/DX2                !
 ! D162  D(47,49,51,54)       -179.7023         estimate D2E/DX2                !
 ! D163  D(53,49,51,48)        179.7038         estimate D2E/DX2                !
 ! D164  D(53,49,51,54)         -0.286          estimate D2E/DX2                !
 --------------------------------------------------------------------------------
 Trust Radius=3.00D-01 FncErr=1.00D-07 GrdErr=1.00D-06 EigMax=2.50D+02 EigMin=1.00D-04
 Number of steps in this run=    324 maximum allowed number of steps=    324.
 GradGradGradGradGradGradGradGradGradGradGradGradGradGradGradGradGradGrad

 Stoichiometry    C30H18N4O2
 Framework group  C1[X(C30H18N4O2)]
 Deg. of freedom   156
 Full point group                 C1      NOp   1
 Largest Abelian subgroup         C1      NOp   1
 Largest concise Abelian subgroup C1      NOp   1
                         Standard orientation:                         
 ---------------------------------------------------------------------
 Center     Atomic      Atomic             Coordinates (Angstroms)
 Number     Number       Type             X           Y           Z
 ---------------------------------------------------------------------
      1          7           0        1.214548   -1.734095    0.059737
      2          6           0       -0.209036   -1.808409   -0.018899
      3          6           0        1.686521   -0.429932   -0.019728
      4          6           0        0.597122    0.409264   -0.131134
      5          6           0       -0.597115   -0.409790   -0.130943
      6          6           0       -1.686510    0.429390   -0.019690
      7          6           0        0.208995    1.807889   -0.019124
      8          7           0       -1.214566    1.733574    0.059398
      9          8           0       -0.831084   -2.861665   -0.002006
     10          8           0        0.831054    2.861155   -0.002138
     11          1           0       -1.790830    2.558521   -0.036996
     12          1           0        1.790744   -2.559018   -0.037235
     13          6           0       -6.049478   -1.397183   -1.217925
     14          6           0       -5.129781   -0.610490   -0.515215
     15          6           0       -3.747668   -0.746647   -0.779012
     16          6           0       -3.263562   -1.637053   -1.736500
     17          6           0       -4.199163   -2.410012   -2.425793
     18          6           0       -5.576287   -2.297240   -2.171095
     19          1           0       -7.114372   -1.303676   -1.026450
     20          1           0       -2.205225   -1.750991   -1.926921
     21          1           0       -3.848145   -3.119931   -3.168332
     22          1           0       -6.276246   -2.917498   -2.722400
     23          7           0       -3.041135    0.176970    0.031492
     24          6           0       -3.982159    0.883755    0.818367
     25          6           0       -5.278733    0.416859    0.498880
     26          6           0       -3.771428    1.841164    1.814593
     27          6           0       -6.388307    0.947684    1.165901
     28          6           0       -4.894510    2.358046    2.464770
     29          1           0       -2.776614    2.164615    2.098223
     30          6           0       -6.190532    1.924074    2.141579
     31          1           0       -7.389190    0.597197    0.932054
     32          1           0       -4.756007    3.104020    3.241361
     33          1           0       -7.043211    2.344584    2.665526
     34          6           0        6.388659   -0.947588    1.164987
     35          6           0        5.278839   -0.416776    0.498357
     36          6           0        3.982507   -0.884604    0.817329
     37          6           0        3.772216   -1.842894    1.812814
     38          6           0        4.895516   -2.359732    2.462637
     39          6           0        6.191343   -1.924880    2.139836
     40          1           0        7.389351   -0.596340    0.931464
     41          1           0        2.777578   -2.167028    2.096236
     42          1           0        4.757349   -3.106373    3.238644
     43          1           0        7.044185   -2.345400    2.663508
     44          7           0        3.041162   -0.177734    0.030788
     45          6           0        3.747335    0.747055   -0.778699
     46          6           0        5.129500    0.611378   -0.514846
     47          6           0        3.263002    1.637903   -1.735653
     48          6           0        6.048917    1.399034   -1.216809
     49          6           0        4.198337    2.411855   -2.424207
     50          1           0        2.204670    1.751472   -1.926231
     51          6           0        5.575460    2.299594   -2.169379
     52          1           0        7.113829    1.305893   -1.025241
     53          1           0        3.847063    3.122131   -3.166284
     54          1           0        6.275225    2.920614   -2.720073
 ---------------------------------------------------------------------
 Rotational constants (GHZ):           0.2354881           0.0567870           0.0542345
 Standard basis: 6-31+G(d,p) (6D, 7F)
 There are   774 symmetry adapted cartesian basis functions of A   symmetry.
 There are   774 symmetry adapted basis functions of A   symmetry.
   774 basis functions,  1278 primitive gaussians,   774 cartesian basis functions
   121 alpha electrons      121 beta electrons
       nuclear repulsion energy      3478.9016936985 Hartrees.
 NAtoms=   54 NActive=   54 NUniq=   54 SFac= 1.00D+00 NAtFMM=   60 NAOKFM=F Big=F
 Integral buffers will be    131072 words long.
 Raffenetti 2 integral format.
 Two-electron integral symmetry is turned on.
 One-electron integrals computed using PRISM.
 NBasis=   774 RedAO= T EigKep=  1.35D-06  NBF=   774
 NBsUse=   762 1.00D-06 EigRej=  8.37D-07 NBFU=   762
 ExpMin= 4.38D-02 ExpMax= 5.48D+03 ExpMxC= 8.25D+02 IAcc=3 IRadAn=         5 AccDes= 0.00D+00
 Harris functional with IExCor=  402 and IRadAn=       5 diagonalized for initial guess.
 HarFok:  IExCor=  402 AccDes= 0.00D+00 IRadAn=         5 IDoV= 1 UseB2=F ITyADJ=14
 ICtDFT=  3500011 ScaDFX=  1.000000  1.000000  1.000000  1.000000
 FoFCou: FMM=F IPFlag=           0 FMFlag=      100000 FMFlg1=           0
         NFxFlg=           0 DoJE=T BraDBF=F KetDBF=T FulRan=T
         wScrn=  0.000000 ICntrl=       500 IOpCl=  0 I1Cent=   200000004 NGrid=           0
         NMat0=    1 NMatS0=      1 NMatT0=    0 NMatD0=    1 NMtDS0=    0 NMtDT0=    0
 Petite list used in FoFCou.
 Requested convergence on RMS density matrix=1.00D-08 within 128 cycles.
 Requested convergence on MAX density matrix=1.00D-06.
 Requested convergence on             energy=1.00D-06.
 No special actions if energy rises.
 SCF Done:  E(RB3LYP) =  -1523.61581913     A.U. after   17 cycles
            NFock= 17  Conv=0.49D-08     -V/T= 2.0095

 **********************************************************************

            Population analysis using the SCF Density.

 **********************************************************************

 Orbital symmetries:
       Occupied  (A) (A) (A) (A) (A) (A) (A) (A) (A) (A) (A) (A)
                 (A) (A) (A) (A) (A) (A) (A) (A) (A) (A) (A) (A)
                 (A) (A) (A) (A) (A) (A) (A) (A) (A) (A) (A) (A)
                 (A) (A) (A) (A) (A) (A) (A) (A) (A) (A) (A) (A)
                 (A) (A) (A) (A) (A) (A) (A) (A) (A) (A) (A) (A)
                 (A) (A) (A) (A) (A) (A) (A) (A) (A) (A) (A) (A)
                 (A) (A) (A) (A) (A) (A) (A) (A) (A) (A) (A) (A)
                 (A) (A) (A) (A) (A) (A) (A) (A) (A) (A) (A) (A)
                 (A) (A) (A) (A) (A) (A) (A) (A) (A) (A) (A) (A)
                 (A) (A) (A) (A) (A) (A) (A) (A) (A) (A) (A) (A)
                 (A)
       Virtual   (A) (A) (A) (A) (A) (A) (A) (A) (A) (A) (A) (A)
                 (A) (A) (A) (A) (A) (A) (A) (A) (A) (A) (A) (A)
                 (A) (A) (A) (A) (A) (A) (A) (A) (A) (A) (A) (A)
                 (A) (A) (A) (A) (A) (A) (A) (A) (A) (A) (A) (A)
                 (A) (A) (A) (A) (A) (A) (A) (A) (A) (A) (A) (A)
                 (A) (A) (A) (A) (A) (A) (A) (A) (A) (A) (A) (A)
                 (A) (A) (A) (A) (A) (A) (A) (A) (A) (A) (A) (A)
                 (A) (A) (A) (A) (A) (A) (A) (A) (A) (A) (A) (A)
                 (A) (A) (A) (A) (A) (A) (A) (A) (A) (A) (A) (A)
                 (A) (A) (A) (A) (A) (A) (A) (A) (A) (A) (A) (A)
                 (A) (A) (A) (A) (A) (A) (A) (A) (A) (A) (A) (A)
                 (A) (A) (A) (A) (A) (A) (A) (A) (A) (A) (A) (A)
                 (A) (A) (A) (A) (A) (A) (A) (A) (A) (A) (A) (A)
                 (A) (A) (A) (A) (A) (A) (A) (A) (A) (A) (A) (A)
                 (A) (A) (A) (A) (A) (A) (A) (A) (A) (A) (A) (A)
                 (A) (A) (A) (A) (A) (A) (A) (A) (A) (A) (A) (A)
                 (A) (A) (A) (A) (A) (A) (A) (A) (A) (A) (A) (A)
                 (A) (A) (A) (A) (A) (A) (A) (A) (A) (A) (A) (A)
                 (A) (A) (A) (A) (A) (A) (A) (A) (A) (A) (A) (A)
                 (A) (A) (A) (A) (A) (A) (A) (A) (A) (A) (A) (A)
                 (A) (A) (A) (A) (A) (A) (A) (A) (A) (A) (A) (A)
                 (A) (A) (A) (A) (A) (A) (A) (A) (A) (A) (A) (A)
                 (A) (A) (A) (A) (A) (A) (A) (A) (A) (A) (A) (A)
                 (A) (A) (A) (A) (A) (A) (A) (A) (A) (A) (A) (A)
                 (A) (A) (A) (A) (A) (A) (A) (A) (A) (A) (A) (A)
                 (A) (A) (A) (A) (A) (A) (A) (A) (A) (A) (A) (A)
                 (A) (A) (A) (A) (A) (A) (A) (A) (A) (A) (A) (A)
                 (A) (A) (A) (A) (A) (A) (A) (A) (A) (A) (A) (A)
                 (A) (A) (A) (A) (A) (A) (A) (A) (A) (A) (A) (A)
                 (A) (A) (A) (A) (A) (A) (A) (A) (A) (A) (A) (A)
                 (A) (A) (A) (A) (A) (A) (A) (A) (A) (A) (A) (A)
                 (A) (A) (A) (A) (A) (A) (A) (A) (A) (A) (A) (A)
                 (A) (A) (A) (A) (A) (A) (A) (A) (A) (A) (A) (A)
                 (A) (A) (A) (A) (A) (A) (A) (A) (A) (A) (A) (A)
                 (A) (A) (A) (A) (A) (A) (A) (A) (A) (A) (A) (A)
                 (A) (A) (A) (A) (A) (A) (A) (A) (A) (A) (A) (A)
                 (A) (A) (A) (A) (A) (A) (A) (A) (A) (A) (A) (A)
                 (A) (A) (A) (A) (A) (A) (A) (A) (A) (A) (A) (A)
                 (A) (A) (A) (A) (A) (A) (A) (A) (A) (A) (A) (A)
                 (A) (A) (A) (A) (A) (A) (A) (A) (A) (A) (A) (A)
                 (A) (A) (A) (A) (A) (A) (A) (A) (A) (A) (A) (A)
                 (A) (A) (A) (A) (A) (A) (A) (A) (A) (A) (A) (A)
                 (A) (A) (A) (A) (A) (A) (A) (A) (A) (A) (A) (A)
                 (A) (A) (A) (A) (A) (A) (A) (A) (A) (A) (A) (A)
                 (A) (A) (A) (A) (A) (A) (A) (A) (A) (A) (A) (A)
                 (A) (A) (A) (A) (A) (A) (A) (A) (A) (A) (A) (A)
                 (A) (A) (A) (A) (A) (A) (A) (A) (A) (A) (A) (A)
                 (A) (A) (A) (A) (A) (A) (A) (A) (A) (A) (A) (A)
                 (A) (A) (A) (A) (A) (A) (A) (A) (A) (A) (A) (A)
                 (A) (A) (A) (A) (A) (A) (A) (A) (A) (A) (A) (A)
                 (A) (A) (A) (A) (A) (A) (A) (A) (A) (A) (A) (A)
                 (A) (A) (A) (A) (A) (A) (A) (A) (A) (A) (A) (A)
                 (A) (A) (A) (A) (A) (A) (A) (A) (A) (A) (A) (A)
                 (A) (A) (A) (A) (A)
 The electronic state is 1-A.
 Alpha  occ. eigenvalues --  -19.14332 -19.14330 -14.42346 -14.42342 -14.40229
 Alpha  occ. eigenvalues --  -14.40229 -10.31545 -10.31543 -10.31283 -10.31280
 Alpha  occ. eigenvalues --  -10.25315 -10.25313 -10.24745 -10.24743 -10.21494
 Alpha  occ. eigenvalues --  -10.21492 -10.21484 -10.21482 -10.21174 -10.21172
 Alpha  occ. eigenvalues --  -10.21116 -10.21106 -10.21105 -10.21091 -10.21090
 Alpha  occ. eigenvalues --  -10.21077 -10.20659 -10.20659 -10.20642 -10.20640
 Alpha  occ. eigenvalues --  -10.20468 -10.20467 -10.20319 -10.20319 -10.20046
 Alpha  occ. eigenvalues --  -10.20045  -1.06494  -1.05754  -1.03045  -1.02919
 Alpha  occ. eigenvalues --   -0.97905  -0.96719  -0.87417  -0.87355  -0.86493
 Alpha  occ. eigenvalues --   -0.86461  -0.82824  -0.80729  -0.80432  -0.77544
 Alpha  occ. eigenvalues --   -0.77014  -0.76731  -0.76331  -0.73674  -0.73644
 Alpha  occ. eigenvalues --   -0.72664  -0.69975  -0.69472  -0.66221  -0.65135
 Alpha  occ. eigenvalues --   -0.63412  -0.62860  -0.62524  -0.61380  -0.59826
 Alpha  occ. eigenvalues --   -0.59535  -0.58749  -0.56585  -0.56285  -0.56015
 Alpha  occ. eigenvalues --   -0.53669  -0.53237  -0.52395  -0.52225  -0.50698
 Alpha  occ. eigenvalues --   -0.48835  -0.48462  -0.48292  -0.47924  -0.47052
 Alpha  occ. eigenvalues --   -0.46965  -0.46612  -0.46599  -0.45468  -0.45380
 Alpha  occ. eigenvalues --   -0.44732  -0.44606  -0.44299  -0.44288  -0.44188
 Alpha  occ. eigenvalues --   -0.44186  -0.43369  -0.43324  -0.42817  -0.40985
 Alpha  occ. eigenvalues --   -0.38637  -0.38428  -0.38186  -0.38166  -0.37810
 Alpha  occ. eigenvalues --   -0.37313  -0.37225  -0.36695  -0.36048  -0.35854
 Alpha  occ. eigenvalues --   -0.35527  -0.35526  -0.33475  -0.33342  -0.29924
 Alpha  occ. eigenvalues --   -0.29905  -0.28969  -0.28420  -0.27540  -0.27127
 Alpha  occ. eigenvalues --   -0.27055  -0.24411  -0.23684  -0.23463  -0.23455
 Alpha  occ. eigenvalues --   -0.20547
 Alpha virt. eigenvalues --   -0.09209  -0.05223  -0.05214  -0.03165  -0.01955
 Alpha virt. eigenvalues --   -0.01779  -0.00694  -0.00180  -0.00046   0.00335
 Alpha virt. eigenvalues --    0.00663   0.00833   0.00839   0.01245   0.01430
 Alpha virt. eigenvalues --    0.01632   0.02230   0.02406   0.02729   0.02986
 Alpha virt. eigenvalues --    0.03003   0.04070   0.04235   0.04266   0.04638
 Alpha virt. eigenvalues --    0.05213   0.05441   0.05733   0.05919   0.06648
 Alpha virt. eigenvalues --    0.06820   0.07120   0.07208   0.07421   0.07527
 Alpha virt. eigenvalues --    0.07843   0.08131   0.08736   0.08917   0.09023
 Alpha virt. eigenvalues --    0.09181   0.09345   0.09685   0.09718   0.10348
 Alpha virt. eigenvalues --    0.10805   0.11049   0.11378   0.11513   0.12046
 Alpha virt. eigenvalues --    0.12131   0.12386   0.12505   0.12754   0.12802
 Alpha virt. eigenvalues --    0.13114   0.13130   0.13382   0.13729   0.13976
 Alpha virt. eigenvalues --    0.14247   0.14388   0.14611   0.14926   0.15087
 Alpha virt. eigenvalues --    0.15257   0.15415   0.15656   0.15690   0.15945
 Alpha virt. eigenvalues --    0.16112   0.16493   0.16855   0.16942   0.17072
 Alpha virt. eigenvalues --    0.17318   0.17515   0.17616   0.17673   0.17950
 Alpha virt. eigenvalues --    0.18217   0.18427   0.18818   0.18874   0.19182
 Alpha virt. eigenvalues --    0.19250   0.19527   0.19677   0.20016   0.20269
 Alpha virt. eigenvalues --    0.20407   0.20415   0.20759   0.20924   0.21268
 Alpha virt. eigenvalues --    0.21340   0.21579   0.21697   0.21943   0.22103
 Alpha virt. eigenvalues --    0.22249   0.22263   0.22370   0.22687   0.22735
 Alpha virt. eigenvalues --    0.23027   0.23694   0.23818   0.24031   0.24099
 Alpha virt. eigenvalues --    0.24335   0.24391   0.24549   0.24554   0.24831
 Alpha virt. eigenvalues --    0.24897   0.25546   0.25658   0.25861   0.25949
 Alpha virt. eigenvalues --    0.26291   0.26499   0.26770   0.27167   0.27506
 Alpha virt. eigenvalues --    0.27547   0.27706   0.27909   0.28144   0.28345
 Alpha virt. eigenvalues --    0.28625   0.28929   0.29092   0.29279   0.29461
 Alpha virt. eigenvalues --    0.29703   0.29872   0.30001   0.30065   0.30375
 Alpha virt. eigenvalues --    0.30549   0.30744   0.31292   0.31336   0.31799
 Alpha virt. eigenvalues --    0.32362   0.32395   0.32630   0.32750   0.32935
 Alpha virt. eigenvalues --    0.33258   0.33590   0.33706   0.33754   0.33829
 Alpha virt. eigenvalues --    0.34364   0.34490   0.34712   0.34805   0.35298
 Alpha virt. eigenvalues --    0.35347   0.35796   0.35866   0.36087   0.37114
 Alpha virt. eigenvalues --    0.37427   0.37534   0.38122   0.38389   0.38987
 Alpha virt. eigenvalues --    0.39387   0.39501   0.39956   0.40297   0.40395
 Alpha virt. eigenvalues --    0.41280   0.41524   0.42549   0.42657   0.42947
 Alpha virt. eigenvalues --    0.43667   0.43844   0.44222   0.44316   0.44836
 Alpha virt. eigenvalues --    0.45113   0.45140   0.46221   0.46479   0.46830
 Alpha virt. eigenvalues --    0.47093   0.48029   0.48276   0.48697   0.49946
 Alpha virt. eigenvalues --    0.51044   0.51814   0.52251   0.54900   0.56160
 Alpha virt. eigenvalues --    0.59714   0.59753   0.60559   0.61045   0.61110
 Alpha virt. eigenvalues --    0.61802   0.63825   0.65095   0.65164   0.67126
 Alpha virt. eigenvalues --    0.67225   0.67635   0.68098   0.68546   0.68550
 Alpha virt. eigenvalues --    0.69281   0.69310   0.70256   0.70764   0.71609
 Alpha virt. eigenvalues --    0.71947   0.72328   0.72860   0.72961   0.73274
 Alpha virt. eigenvalues --    0.73602   0.73808   0.73976   0.74358   0.74661
 Alpha virt. eigenvalues --    0.74768   0.74784   0.75414   0.75720   0.76073
 Alpha virt. eigenvalues --    0.76341   0.76531   0.76882   0.77217   0.77554
 Alpha virt. eigenvalues --    0.78179   0.79259   0.79996   0.80021   0.80709
 Alpha virt. eigenvalues --    0.80912   0.81211   0.81806   0.82012   0.82556
 Alpha virt. eigenvalues --    0.83237   0.83618   0.83656   0.83982   0.84456
 Alpha virt. eigenvalues --    0.85535   0.85880   0.86044   0.87263   0.87426
 Alpha virt. eigenvalues --    0.87637   0.88079   0.88188   0.88882   0.89269
 Alpha virt. eigenvalues --    0.89826   0.90521   0.91300   0.91814   0.92484
 Alpha virt. eigenvalues --    0.92699   0.93340   0.93851   0.94416   0.94419
 Alpha virt. eigenvalues --    0.95611   0.95971   0.96192   0.96620   0.96915
 Alpha virt. eigenvalues --    0.97624   0.98842   0.99023   0.99344   1.00641
 Alpha virt. eigenvalues --    1.00815   1.01327   1.02356   1.02481   1.03408
 Alpha virt. eigenvalues --    1.03774   1.04141   1.04731   1.04756   1.05418
 Alpha virt. eigenvalues --    1.05491   1.07072   1.07954   1.09829   1.10582
 Alpha virt. eigenvalues --    1.11407   1.11502   1.12348   1.13028   1.13361
 Alpha virt. eigenvalues --    1.14353   1.15012   1.15501   1.15528   1.16398
 Alpha virt. eigenvalues --    1.16678   1.17375   1.18157   1.18570   1.19971
 Alpha virt. eigenvalues --    1.20185   1.20525   1.21038   1.22165   1.22462
 Alpha virt. eigenvalues --    1.23497   1.24027   1.24319   1.24940   1.25554
 Alpha virt. eigenvalues --    1.26137   1.26193   1.26464   1.26895   1.27081
 Alpha virt. eigenvalues --    1.28372   1.28476   1.29059   1.29073   1.29808
 Alpha virt. eigenvalues --    1.30419   1.30580   1.30945   1.31540   1.32155
 Alpha virt. eigenvalues --    1.32846   1.33362   1.33674   1.35193   1.35630
 Alpha virt. eigenvalues --    1.35996   1.36083   1.36143   1.36584   1.36616
 Alpha virt. eigenvalues --    1.37369   1.37765   1.37883   1.38374   1.38938
 Alpha virt. eigenvalues --    1.39467   1.39496   1.40117   1.40553   1.40601
 Alpha virt. eigenvalues --    1.40895   1.41068   1.41105   1.41292   1.42191
 Alpha virt. eigenvalues --    1.42481   1.42599   1.43064   1.43408   1.44047
 Alpha virt. eigenvalues --    1.44532   1.45898   1.46959   1.47545   1.50060
 Alpha virt. eigenvalues --    1.50687   1.53191   1.55025   1.55299   1.57270
 Alpha virt. eigenvalues --    1.58253   1.58734   1.59593   1.60304   1.61088
 Alpha virt. eigenvalues --    1.61726   1.64305   1.64435   1.65799   1.70516
 Alpha virt. eigenvalues --    1.70649   1.73619   1.73854   1.74889   1.75237
 Alpha virt. eigenvalues --    1.76246   1.77173   1.77933   1.78419   1.78913
 Alpha virt. eigenvalues --    1.80084   1.80329   1.80955   1.80991   1.81725
 Alpha virt. eigenvalues --    1.82788   1.82998   1.83449   1.84506   1.85095
 Alpha virt. eigenvalues --    1.85204   1.86448   1.87042   1.87876   1.89154
 Alpha virt. eigenvalues --    1.89631   1.90072   1.90245   1.92093   1.92191
 Alpha virt. eigenvalues --    1.92538   1.92579   1.93245   1.93500   1.93565
 Alpha virt. eigenvalues --    1.93645   1.94494   1.94751   1.95346   1.96112
 Alpha virt. eigenvalues --    1.96117   1.98127   1.98387   1.98885   1.99053
 Alpha virt. eigenvalues --    1.99268   1.99712   2.00211   2.00427   2.01879
 Alpha virt. eigenvalues --    2.02577   2.02738   2.03293   2.04896   2.04978
 Alpha virt. eigenvalues --    2.05482   2.05991   2.06708   2.06914   2.08262
 Alpha virt. eigenvalues --    2.08841   2.10858   2.10918   2.12370   2.12435
 Alpha virt. eigenvalues --    2.14124   2.15153   2.15911   2.16118   2.16583
 Alpha virt. eigenvalues --    2.16790   2.17567   2.20574   2.21681   2.22592
 Alpha virt. eigenvalues --    2.24452   2.25298   2.25372   2.25761   2.26783
 Alpha virt. eigenvalues --    2.27849   2.28170   2.28507   2.28548   2.30432
 Alpha virt. eigenvalues --    2.31128   2.32775   2.33705   2.33743   2.34776
 Alpha virt. eigenvalues --    2.35138   2.35557   2.36539   2.36890   2.37807
 Alpha virt. eigenvalues --    2.38003   2.38290   2.38990   2.39194   2.39204
 Alpha virt. eigenvalues --    2.39421   2.40599   2.41179   2.41626   2.42321
 Alpha virt. eigenvalues --    2.42594   2.43708   2.45436   2.46188   2.46374
 Alpha virt. eigenvalues --    2.47224   2.47363   2.47861   2.48498   2.50008
 Alpha virt. eigenvalues --    2.51119   2.51459   2.51714   2.52117   2.53036
 Alpha virt. eigenvalues --    2.53171   2.53638   2.53895   2.54542   2.55293
 Alpha virt. eigenvalues --    2.55595   2.56235   2.56383   2.56659   2.58218
 Alpha virt. eigenvalues --    2.58542   2.58747   2.59048   2.59725   2.59882
 Alpha virt. eigenvalues --    2.60956   2.62413   2.63978   2.64070   2.64339
 Alpha virt. eigenvalues --    2.65715   2.65989   2.66761   2.67128   2.67558
 Alpha virt. eigenvalues --    2.68036   2.68801   2.68890   2.71493   2.72946
 Alpha virt. eigenvalues --    2.73092   2.74147   2.74961   2.75521   2.75650
 Alpha virt. eigenvalues --    2.77126   2.77816   2.78396   2.80371   2.81581
 Alpha virt. eigenvalues --    2.84123   2.85315   2.86060   2.86361   2.89331
 Alpha virt. eigenvalues --    2.90083   2.90879   2.91110   2.91489   2.91767
 Alpha virt. eigenvalues --    2.92858   2.94654   2.95044   2.99198   3.00519
 Alpha virt. eigenvalues --    3.03334   3.03545   3.05776   3.06962   3.09904
 Alpha virt. eigenvalues --    3.12256   3.13904   3.15012   3.18433   3.19138
 Alpha virt. eigenvalues --    3.21460   3.22951   3.24536   3.26482   3.26610
 Alpha virt. eigenvalues --    3.26616   3.26962   3.27527   3.27708   3.27725
 Alpha virt. eigenvalues --    3.30934   3.32574   3.33019   3.35914   3.37877
 Alpha virt. eigenvalues --    3.38542   3.38762   3.38979   3.43402   3.48409
 Alpha virt. eigenvalues --    3.49371   3.49945   3.52731   3.53807   3.55819
 Alpha virt. eigenvalues --    3.58163   3.81644   3.81756   3.89404   3.89636
 Alpha virt. eigenvalues --    4.22442   4.28962   4.29412   4.31979   4.32073
 Alpha virt. eigenvalues --    4.33686   4.34459   4.37056   4.37576   4.38719
 Alpha virt. eigenvalues --    4.40012   4.40845   4.44120   4.46388   4.46815
 Alpha virt. eigenvalues --    4.47350   4.47859   4.48063   4.49376   4.51284
 Alpha virt. eigenvalues --    4.51310   4.58596   4.58841   4.59202   4.59941
 Alpha virt. eigenvalues --    4.60711   4.63630   4.67620   4.74426   4.78025
 Alpha virt. eigenvalues --    4.85421   4.86900   4.93276   4.93528   5.00475
 Alpha virt. eigenvalues --    5.10268
          Condensed to atoms (all electrons):
 Mulliken charges:
               1
     1  N   -0.528838
     2  C    0.048361
     3  C    0.205052
     4  C    0.346886
     5  C    0.345585
     6  C    0.201141
     7  C    0.047587
     8  N   -0.528717
     9  O   -0.509708
    10  O   -0.509760
    11  H    0.329161
    12  H    0.329158
    13  C   -0.004181
    14  C    0.320467
    15  C    0.019019
    16  C    0.278260
    17  C   -0.486735
    18  C   -0.312370
    19  H    0.127461
    20  H    0.126800
    21  H    0.130063
    22  H    0.127220
    23  N    0.207902
    24  C   -0.072132
    25  C   -0.015121
    26  C    0.041391
    27  C   -0.281791
    28  C   -0.430988
    29  H    0.147013
    30  C   -0.200872
    31  H    0.131123
    32  H    0.131652
    33  H    0.128997
    34  C   -0.281920
    35  C   -0.013468
    36  C   -0.072709
    37  C    0.040905
    38  C   -0.431107
    39  C   -0.201187
    40  H    0.131129
    41  H    0.147023
    42  H    0.131658
    43  H    0.129005
    44  N    0.206693
    45  C    0.018052
    46  C    0.320684
    47  C    0.277988
    48  C   -0.004206
    49  C   -0.486768
    50  H    0.126792
    51  C   -0.312400
    52  H    0.127457
    53  H    0.130067
    54  H    0.127226
 Sum of Mulliken charges =  -0.00000
 Mulliken charges with hydrogens summed into heavy atoms:
               1
     1  N   -0.199680
     2  C    0.048361
     3  C    0.205052
     4  C    0.346886
     5  C    0.345585
     6  C    0.201141
     7  C    0.047587
     8  N   -0.199556
     9  O   -0.509708
    10  O   -0.509760
    13  C    0.123280
    14  C    0.320467
    15  C    0.019019
    16  C    0.405061
    17  C   -0.356672
    18  C   -0.185150
    23  N    0.207902
    24  C   -0.072132
    25  C   -0.015121
    26  C    0.188404
    27  C   -0.150668
    28  C   -0.299336
    30  C   -0.071875
    34  C   -0.150791
    35  C   -0.013468
    36  C   -0.072709
    37  C    0.187928
    38  C   -0.299448
    39  C   -0.072182
    44  N    0.206693
    45  C    0.018052
    46  C    0.320684
    47  C    0.404780
    48  C    0.123251
    49  C   -0.356701
    51  C   -0.185174
 Electronic spatial extent (au):  <R**2>=          19829.0855
 Charge=              0.0000 electrons
 Dipole moment (field-independent basis, Debye):
    X=              0.0030    Y=              0.0005    Z=             -0.1646  Tot=              0.1647
 Quadrupole moment (field-independent basis, Debye-Ang):
   XX=           -170.5760   YY=           -215.7840   ZZ=           -200.2122
   XY=            -12.9951   XZ=              0.0054   YZ=              0.0000
 Traceless Quadrupole moment (field-independent basis, Debye-Ang):
   XX=             24.9480   YY=            -20.2599   ZZ=             -4.6881
   XY=            -12.9951   XZ=              0.0054   YZ=              0.0000
 Octapole moment (field-independent basis, Debye-Ang**2):
  XXX=              0.0779  YYY=              0.0100  ZZZ=              5.7781  XYY=              0.0879
  XXY=              0.0363  XXZ=             23.1860  XZZ=             -0.0462  YZZ=             -0.0022
  YYZ=             -7.3404  XYZ=            -78.3771
 Hexadecapole moment (field-independent basis, Debye-Ang**3):
 XXXX=         -19385.7081 YYYY=          -3820.3607 ZZZZ=          -2666.6282 XXXY=            113.4148
 XXXZ=              0.4358 YYYX=           -109.7693 YYYZ=             -0.2341 ZZZX=              0.0085
 ZZZY=              0.2073 XXYY=          -4181.0522 XXZZ=          -4029.0270 YYZZ=           -854.1955
 XXYZ=             -0.0427 YYXZ=              0.0033 ZZXY=            -20.1997
 N-N= 3.478901693698D+03 E-N=-1.049215011421D+04  KE= 1.509297228637D+03
 Calling FoFJK, ICntrl=      2127 FMM=F ISym2X=0 I1Cent= 0 IOpClX= 0 NMat=1 NMatS=1 NMatT=0.
 ***** Axes restored to original set *****
 -------------------------------------------------------------------
 Center     Atomic                   Forces (Hartrees/Bohr)
 Number     Number              X              Y              Z
 -------------------------------------------------------------------
      1        7          -0.000004583   -0.000006918   -0.000004327
      2        6           0.000003045    0.000001843   -0.000000071
      3        6           0.000004883   -0.000019069   -0.000053252
      4        6          -0.000011010    0.000004671    0.000024020
      5        6           0.000003474    0.000006310    0.000000085
      6        6          -0.000002714    0.000000569   -0.000000945
      7        6           0.000008736    0.000005072   -0.000000993
      8        7          -0.000002794    0.000001880    0.000002073
      9        8           0.000002253    0.000001875    0.000000201
     10        8          -0.000008533   -0.000002708    0.000000055
     11        1          -0.000001309   -0.000002747    0.000000299
     12        1           0.000003177   -0.000001172    0.000000085
     13        6          -0.000001199   -0.000002234   -0.000000962
     14        6           0.000000961   -0.000002127    0.000000805
     15        6           0.000000851    0.000003533    0.000004593
     16        6          -0.000000716    0.000000572   -0.000001739
     17        6           0.000001079   -0.000000580    0.000001755
     18        6          -0.000001442    0.000001241    0.000000013
     19        1           0.000000548    0.000000171    0.000000300
     20        1          -0.000000294   -0.000000283   -0.000000903
     21        1           0.000000608   -0.000000105    0.000000088
     22        1           0.000000275   -0.000000718   -0.000000050
     23        7           0.000003465   -0.000003687   -0.000004068
     24        6          -0.000002961    0.000002532    0.000003493
     25        6           0.000001606   -0.000000247   -0.000002100
     26        6          -0.000002248   -0.000000500   -0.000000101
     27        6          -0.000000117    0.000002547   -0.000000349
     28        6           0.000002811    0.000000588   -0.000000181
     29        1           0.000000099   -0.000000078    0.000000587
     30        6          -0.000001859   -0.000003124   -0.000000729
     31        1          -0.000000202   -0.000001239    0.000000089
     32        1          -0.000000083   -0.000000696   -0.000000299
     33        1          -0.000000371   -0.000000521    0.000000114
     34        6          -0.000001733    0.000004136   -0.000006331
     35        6           0.000016120    0.000000790    0.000001155
     36        6          -0.000024122   -0.000007456    0.000000132
     37        6           0.000002137    0.000005158   -0.000001496
     38        6           0.000005913    0.000002129   -0.000002493
     39        6          -0.000002338   -0.000002261    0.000009156
     40        1           0.000001404   -0.000002117    0.000002321
     41        1          -0.000003653   -0.000001052    0.000000293
     42        1          -0.000001349    0.000000244    0.000000109
     43        1           0.000003142    0.000001665   -0.000002256
     44        7           0.000018437    0.000025413    0.000058303
     45        6           0.000015917   -0.000012297   -0.000020827
     46        6          -0.000022107   -0.000005143   -0.000001671
     47        6          -0.000002122    0.000002893   -0.000004217
     48        6           0.000010796    0.000008012   -0.000003793
     49        6          -0.000009524    0.000000647   -0.000000661
     50        1          -0.000003343    0.000000193   -0.000003224
     51        6           0.000006130   -0.000004518    0.000008279
     52        1          -0.000002372   -0.000001850    0.000000307
     53        1          -0.000000259    0.000000219    0.000000878
     54        1          -0.000002507    0.000000547   -0.000001551
 -------------------------------------------------------------------
 Cartesian Forces:  Max     0.000058303 RMS     0.000008575

 GradGradGradGradGradGradGradGradGradGradGradGradGradGradGradGradGradGrad
 Berny optimization.
 FormGI is forming the generalized inverse of G from B-inverse, IUseBI=4.
 Internal  Forces:  Max     0.000025637 RMS     0.000003270
 Search for a local minimum.
 Step number   1 out of a maximum of  324
 All quantities printed in internal units (Hartrees-Bohrs-Radians)
 Mixed Optimization -- En-DIIS/RFO-DIIS
 Second derivative matrix not updated -- first step.
 ITU=  0
     Eigenvalues ---    0.01340   0.01341   0.01432   0.01562   0.01563
     Eigenvalues ---    0.01640   0.01673   0.01704   0.01704   0.01748
     Eigenvalues ---    0.01749   0.01770   0.01831   0.01839   0.01839
     Eigenvalues ---    0.01848   0.01848   0.01879   0.01893   0.01893
     Eigenvalues ---    0.01899   0.01899   0.01971   0.01972   0.02013
     Eigenvalues ---    0.02069   0.02069   0.02070   0.02070   0.02090
     Eigenvalues ---    0.02090   0.02097   0.02097   0.02100   0.02100
     Eigenvalues ---    0.02101   0.02101   0.02104   0.02125   0.02125
     Eigenvalues ---    0.02130   0.02130   0.02134   0.02134   0.02137
     Eigenvalues ---    0.02137   0.02146   0.02146   0.02156   0.02156
     Eigenvalues ---    0.02159   0.15396   0.15418   0.15993   0.15993
     Eigenvalues ---    0.15995   0.15995   0.15998   0.15998   0.15999
     Eigenvalues ---    0.15999   0.15999   0.15999   0.15999   0.15999
     Eigenvalues ---    0.16000   0.16000   0.16000   0.16000   0.21999
     Eigenvalues ---    0.21999   0.22000   0.22000   0.22089   0.22594
     Eigenvalues ---    0.22594   0.22597   0.22597   0.23724   0.23739
     Eigenvalues ---    0.24465   0.24465   0.24506   0.24506   0.24817
     Eigenvalues ---    0.24822   0.24839   0.24933   0.24934   0.24973
     Eigenvalues ---    0.24973   0.24994   0.24995   0.24998   0.24998
     Eigenvalues ---    0.33279   0.35278   0.35279   0.35285   0.35285
     Eigenvalues ---    0.35314   0.35314   0.35322   0.35322   0.35324
     Eigenvalues ---    0.35324   0.35332   0.35333   0.35534   0.35535
     Eigenvalues ---    0.35738   0.35832   0.35834   0.36034   0.36035
     Eigenvalues ---    0.36233   0.36233   0.36368   0.39540   0.39971
     Eigenvalues ---    0.39971   0.40381   0.41497   0.41500   0.42073
     Eigenvalues ---    0.42073   0.42249   0.42249   0.42421   0.42425
     Eigenvalues ---    0.43816   0.43816   0.44094   0.44095   0.45319
     Eigenvalues ---    0.45580   0.45581   0.45675   0.45710   0.45711
     Eigenvalues ---    0.45823   0.45823   0.45982   0.45983   0.46133
     Eigenvalues ---    0.46133   0.46337   0.46338   0.46630   0.46630
     Eigenvalues ---    0.47491   0.47687   0.49305   0.49314   0.93909
     Eigenvalues ---    0.93916
 RFO step:  Lambda=-9.06512418D-08 EMin= 1.34045015D-02
 Linear search not attempted -- first point.
 Iteration  1 RMS(Cart)=  0.00093421 RMS(Int)=  0.00000009
 Iteration  2 RMS(Cart)=  0.00000029 RMS(Int)=  0.00000000
 Variable       Old X    -DE/DX   Delta X   Delta X   Delta X     New X
                                 (Linear)    (Quad)   (Total)
    R1        2.69794  -0.00000   0.00000  -0.00001  -0.00001   2.69793
    R2        2.62523   0.00000   0.00000   0.00000   0.00000   2.62524
    R3        1.91031   0.00000   0.00000   0.00001   0.00001   1.91032
    R4        2.75102   0.00000   0.00000   0.00000   0.00000   2.75103
    R5        2.31179  -0.00000   0.00000  -0.00000  -0.00000   2.31179
    R6        2.60717   0.00001   0.00000   0.00003   0.00003   2.60720
    R7        2.60564   0.00001   0.00000   0.00001   0.00001   2.60565
    R8        2.73655  -0.00000   0.00000  -0.00001  -0.00001   2.73654
    R9        2.75105   0.00001   0.00000   0.00002   0.00002   2.75107
   R10        2.60712   0.00000   0.00000   0.00000   0.00000   2.60713
   R11        2.62521  -0.00000   0.00000  -0.00001  -0.00001   2.62520
   R12        2.60573  -0.00000   0.00000  -0.00000  -0.00000   2.60573
   R13        2.69789   0.00000   0.00000   0.00001   0.00001   2.69789
   R14        2.31182  -0.00001   0.00000  -0.00001  -0.00001   2.31181
   R15        1.91032  -0.00000   0.00000  -0.00000  -0.00000   1.91031
   R16        2.64462   0.00000   0.00000   0.00000   0.00000   2.64463
   R17        2.63381  -0.00000   0.00000  -0.00000  -0.00000   2.63381
   R18        2.05225  -0.00000   0.00000  -0.00000  -0.00000   2.05225
   R19        2.67138  -0.00000   0.00000  -0.00000  -0.00000   2.67138
   R20        2.74240  -0.00000   0.00000  -0.00000  -0.00000   2.74239
   R21        2.63477   0.00000   0.00000   0.00000   0.00000   2.63477
   R22        2.67860  -0.00000   0.00000  -0.00001  -0.00001   2.67859
   R23        2.63746  -0.00000   0.00000  -0.00000  -0.00000   2.63746
   R24        2.04346  -0.00000   0.00000  -0.00000  -0.00000   2.04346
   R25        2.65509   0.00000   0.00000   0.00000   0.00000   2.65509
   R26        2.05152  -0.00000   0.00000  -0.00000  -0.00000   2.05152
   R27        2.05155   0.00000   0.00000   0.00000   0.00000   2.05155
   R28        2.67531   0.00000   0.00000   0.00001   0.00001   2.67532
   R29        2.67326  -0.00000   0.00000  -0.00000  -0.00000   2.67326
   R30        2.64123  -0.00000   0.00000  -0.00000  -0.00000   2.64123
   R31        2.64416  -0.00000   0.00000  -0.00000  -0.00000   2.64416
   R32        2.63968  -0.00000   0.00000  -0.00000  -0.00000   2.63967
   R33        2.04817   0.00000   0.00000   0.00000   0.00000   2.04817
   R34        2.63507  -0.00000   0.00000  -0.00000  -0.00000   2.63506
   R35        2.05215   0.00000   0.00000   0.00000   0.00000   2.05215
   R36        2.65401   0.00000   0.00000   0.00000   0.00000   2.65401
   R37        2.05168  -0.00000   0.00000  -0.00000  -0.00000   2.05168
   R38        2.05139   0.00000   0.00000   0.00000   0.00000   2.05139
   R39        2.64417  -0.00000   0.00000  -0.00000  -0.00000   2.64417
   R40        2.63504   0.00000   0.00000   0.00001   0.00001   2.63505
   R41        2.05215  -0.00000   0.00000  -0.00000  -0.00000   2.05215
   R42        2.67320   0.00001   0.00000   0.00003   0.00003   2.67323
   R43        2.74237   0.00000   0.00000   0.00001   0.00001   2.74238
   R44        2.64125  -0.00000   0.00000  -0.00001  -0.00001   2.64124
   R45        2.67544  -0.00001   0.00000  -0.00002  -0.00002   2.67542
   R46        2.63967   0.00000   0.00000   0.00001   0.00001   2.63968
   R47        2.04815   0.00000   0.00000   0.00001   0.00001   2.04816
   R48        2.65402  -0.00000   0.00000  -0.00000  -0.00000   2.65401
   R49        2.05168   0.00000   0.00000   0.00000   0.00000   2.05168
   R50        2.05138   0.00000   0.00000   0.00000   0.00000   2.05139
   R51        2.67861   0.00000   0.00000   0.00000   0.00000   2.67861
   R52        2.67141  -0.00001   0.00000  -0.00002  -0.00002   2.67139
   R53        2.63476   0.00001   0.00000   0.00001   0.00001   2.63477
   R54        2.64459   0.00001   0.00000   0.00001   0.00001   2.64460
   R55        2.63748  -0.00001   0.00000  -0.00001  -0.00001   2.63747
   R56        2.04343   0.00000   0.00000   0.00001   0.00001   2.04344
   R57        2.63382  -0.00000   0.00000  -0.00000  -0.00000   2.63382
   R58        2.05226  -0.00000   0.00000  -0.00001  -0.00001   2.05225
   R59        2.65505   0.00001   0.00000   0.00002   0.00002   2.65507
   R60        2.05152  -0.00000   0.00000  -0.00000  -0.00000   2.05152
   R61        2.05155  -0.00000   0.00000  -0.00000  -0.00000   2.05155
    A1        1.96544  -0.00000   0.00000  -0.00001  -0.00001   1.96542
    A2        2.11834   0.00000   0.00000   0.00002   0.00002   2.11835
    A3        2.17358  -0.00000   0.00000  -0.00001  -0.00001   2.17358
    A4        1.79265   0.00001   0.00000   0.00002   0.00002   1.79267
    A5        2.15445  -0.00000   0.00000  -0.00001  -0.00001   2.15443
    A6        2.33598  -0.00000   0.00000  -0.00000  -0.00000   2.33598
    A7        1.88323   0.00000   0.00000   0.00001   0.00001   1.88324
    A8        2.09831  -0.00000   0.00000  -0.00001  -0.00001   2.09830
    A9        2.30159   0.00000   0.00000   0.00000   0.00000   2.30159
   A10        1.88298  -0.00000   0.00000  -0.00001  -0.00001   1.88297
   A11        2.47946   0.00001   0.00000   0.00001   0.00001   2.47947
   A12        1.90023  -0.00000   0.00000  -0.00001  -0.00001   1.90022
   A13        1.90028   0.00000   0.00000  -0.00000  -0.00000   1.90028
   A14        2.47944  -0.00000   0.00000  -0.00002  -0.00002   2.47942
   A15        1.88301   0.00000   0.00000   0.00001   0.00001   1.88303
   A16        1.88323  -0.00000   0.00000  -0.00000  -0.00000   1.88323
   A17        2.30148   0.00000   0.00000   0.00001   0.00001   2.30149
   A18        2.09843  -0.00000   0.00000  -0.00001  -0.00001   2.09842
   A19        1.79268  -0.00000   0.00000   0.00000   0.00000   1.79268
   A20        2.33596   0.00001   0.00000   0.00003   0.00003   2.33598
   A21        2.15445  -0.00001   0.00000  -0.00003  -0.00003   2.15442
   A22        1.96545   0.00000   0.00000  -0.00000  -0.00000   1.96544
   A23        2.17369  -0.00000   0.00000  -0.00002  -0.00002   2.17367
   A24        2.11846   0.00000   0.00000   0.00001   0.00001   2.11847
   A25        2.07521  -0.00000   0.00000  -0.00000  -0.00000   2.07521
   A26        2.10304  -0.00000   0.00000  -0.00000  -0.00000   2.10304
   A27        2.10492   0.00000   0.00000   0.00001   0.00001   2.10493
   A28        2.08826   0.00000   0.00000   0.00001   0.00001   2.08826
   A29        2.32044  -0.00000   0.00000  -0.00001  -0.00001   2.32043
   A30        1.87437  -0.00000   0.00000  -0.00000  -0.00000   1.87437
   A31        2.12837  -0.00000   0.00000  -0.00001  -0.00001   2.12837
   A32        1.89428   0.00000   0.00000   0.00001   0.00001   1.89429
   A33        2.25976   0.00000   0.00000   0.00000   0.00000   2.25976
   A34        2.04889   0.00000   0.00000   0.00000   0.00000   2.04889
   A35        2.12709   0.00000   0.00000   0.00000   0.00000   2.12710
   A36        2.10687  -0.00000   0.00000  -0.00001  -0.00001   2.10686
   A37        2.12124   0.00000   0.00000   0.00000   0.00000   2.12124
   A38        2.07512  -0.00000   0.00000  -0.00000  -0.00000   2.07511
   A39        2.08679  -0.00000   0.00000   0.00000   0.00000   2.08679
   A40        2.10433  -0.00000   0.00000  -0.00000  -0.00000   2.10432
   A41        2.09134   0.00000   0.00000   0.00000   0.00000   2.09134
   A42        2.08752   0.00000   0.00000   0.00000   0.00000   2.08752
   A43        2.19906   0.00000   0.00000   0.00000   0.00000   2.19906
   A44        2.19228   0.00000   0.00000  -0.00000  -0.00000   2.19228
   A45        1.88789  -0.00000   0.00000  -0.00000  -0.00000   1.88788
   A46        1.89539  -0.00000   0.00000  -0.00000  -0.00000   1.89539
   A47        2.26261   0.00000   0.00000   0.00000   0.00000   2.26261
   A48        2.12380  -0.00000   0.00000  -0.00000  -0.00000   2.12380
   A49        1.87276   0.00000   0.00000   0.00000   0.00000   1.87276
   A50        2.32276  -0.00000   0.00000  -0.00001  -0.00001   2.32275
   A51        2.08741   0.00000   0.00000   0.00000   0.00000   2.08741
   A52        2.05332   0.00000   0.00000   0.00000   0.00000   2.05332
   A53        2.12861   0.00000   0.00000   0.00000   0.00000   2.12861
   A54        2.10102  -0.00000   0.00000  -0.00000  -0.00000   2.10102
   A55        2.07913  -0.00000   0.00000   0.00000   0.00000   2.07913
   A56        2.10108  -0.00000   0.00000  -0.00000  -0.00000   2.10108
   A57        2.10295   0.00000   0.00000   0.00000   0.00000   2.10295
   A58        2.11822  -0.00000   0.00000  -0.00000  -0.00000   2.11822
   A59        2.07672  -0.00000   0.00000  -0.00000  -0.00000   2.07672
   A60        2.08821   0.00000   0.00000   0.00000   0.00000   2.08821
   A61        2.10397  -0.00000   0.00000  -0.00000  -0.00000   2.10397
   A62        2.09157   0.00000   0.00000  -0.00000  -0.00000   2.09157
   A63        2.08757   0.00000   0.00000   0.00000   0.00000   2.08757
   A64        2.07913  -0.00000   0.00000   0.00000   0.00000   2.07913
   A65        2.10103   0.00000   0.00000   0.00002   0.00002   2.10106
   A66        2.10299  -0.00000   0.00000  -0.00002  -0.00002   2.10297
   A67        2.08744   0.00000   0.00000   0.00000   0.00000   2.08744
   A68        2.32269   0.00000   0.00000   0.00001   0.00001   2.32270
   A69        1.87280  -0.00000   0.00000  -0.00001  -0.00001   1.87279
   A70        2.12377  -0.00000   0.00000  -0.00001  -0.00001   2.12377
   A71        1.89538  -0.00001   0.00000  -0.00002  -0.00002   1.89537
   A72        2.26265   0.00001   0.00000   0.00002   0.00002   2.26267
   A73        2.05333  -0.00000   0.00000  -0.00000  -0.00000   2.05333
   A74        2.12865  -0.00000   0.00000  -0.00000  -0.00000   2.12865
   A75        2.10097   0.00000   0.00000   0.00000   0.00000   2.10097
   A76        2.11822   0.00000   0.00000   0.00001   0.00001   2.11823
   A77        2.07672  -0.00000   0.00000  -0.00002  -0.00002   2.07671
   A78        2.08820   0.00000   0.00000   0.00000   0.00000   2.08821
   A79        2.10395  -0.00000   0.00000  -0.00001  -0.00001   2.10395
   A80        2.09161  -0.00000   0.00000  -0.00002  -0.00002   2.09159
   A81        2.08754   0.00000   0.00000   0.00003   0.00003   2.08757
   A82        2.19230   0.00000   0.00000  -0.00000  -0.00000   2.19229
   A83        2.19921  -0.00001   0.00000  -0.00006  -0.00006   2.19915
   A84        1.88784   0.00001   0.00000   0.00003   0.00003   1.88787
   A85        1.89430  -0.00000   0.00000  -0.00002  -0.00002   1.89429
   A86        2.25980  -0.00000   0.00000  -0.00001  -0.00001   2.25979
   A87        2.12830   0.00001   0.00000   0.00003   0.00003   2.12833
   A88        1.87436   0.00000   0.00000   0.00002   0.00002   1.87438
   A89        2.32041  -0.00000   0.00000  -0.00001  -0.00001   2.32039
   A90        2.08830  -0.00000   0.00000  -0.00000  -0.00000   2.08829
   A91        2.04893  -0.00000   0.00000  -0.00002  -0.00002   2.04891
   A92        2.12711   0.00000   0.00000   0.00002   0.00002   2.12713
   A93        2.10681   0.00000   0.00000  -0.00000  -0.00000   2.10681
[...]
 2,-0.00000102,0.00000133,0.00000002,-0.00171224,0.00171350,-0.00177446
 ,0.00266135,-0.00324645,0.00957343,0.00366290,0.00004075,0.00065771,-0
 .00033218,0.00051682,-0.00095919,0.00180027,0.00034048,0.00001513,-0.0
 0116245,-0.00146700,0.00119278,-0.00015827,0.00002283,-0.00013230,0.00
 001023,0.00008574,-0.00008299,0.00002203,-0.00003798,-0.00002751,-0.00
 003566,-0.00003100,-0.00004307,-0.00171374,0.00079164,-0.00181776,-0.0
 2226875,0.01061515,-0.01829114,0.03042518,0.03556053,-0.02640077,0.007
 49210,-0.02130362,0.02875072,-0.07582760,0.12764588,-0.19504711,-0.014
 41316,0.03729866,-0.10043802,0.00235182,0.00543187,0.00234283,-0.00052
 088,-0.29123574,0.42165061,-0.00017686,-0.00003856,0.00004212,0.000097
 69,0.00001972,-0.00000053,0.00036004,-0.00016218,0.00022909,-0.0000663
 8,0.00008017,-0.00003743,-0.00006401,0.00004233,0.00001482,0.00011531,
 -0.00002385,-0.00000679,0.00009677,-0.00010372,-0.00001554,-0.00004625
 ,-0.00000659,-0.00000873,-0.00005215,-0.00006203,-0.00000396,-0.000019
 44,0.00006676,0.00003221,0.00000655,-0.00000627,-0.00000651,-0.0000123
 2,0.00002010,-0.00000981,-0.00000065,-0.00000571,-0.00000350,-0.000013
 55,0.00000653,0.00000929,0.00002476,0.00005795,0.00003016,0.00000028,-
 0.00001243,-0.00001333,0.00000774,0.00000628,0.00000607,-0.00001052,0.
 00000054,0.00000103,-0.00000251,-0.00000023,0.00000032,0.00000046,0.00
 000388,0.00000444,0.00000087,-0.00000101,-0.00000156,-0.00000220,-0.00
 000132,-0.00000112,-0.00013500,-0.00001882,0.00000697,0.00004778,-0.00
 004881,-0.00003048,-0.00001468,-0.00001130,-0.00000920,-0.00000430,0.0
 0001065,0.00001368,0.00000033,0.00000376,0.00000177,0.00000759,-0.0000
 0366,-0.00000504,0.00000106,-0.00000272,-0.00000596,-0.00000980,-0.000
 00093,0.00000087,-0.00000225,-0.00000022,-0.00000058,-0.00000012,0.000
 00191,0.00000164,-0.00000236,0.00000097,0.00000092,-0.00030729,-0.0003
 6630,0.00031733,0.00072994,0.00110047,-0.00063919,-0.00056252,-0.00001
 865,-0.00009667,0.00006506,0.00006673,-0.00005750,0.00003354,-0.000003
 54,0.00000882,0.00029650,-0.00008052,0.00012605,0.00039702,-0.00009783
 ,0.00012430,-0.00000448,-0.00000684,0.00000274,0.00003019,0.00000196,-
 0.00000449,-0.00000611,-0.00002691,0.00002289,-0.00117417,-0.00013922,
 -0.00005937,0.00067856,-0.00232466,0.00179923,-0.01625251,0.00293624,-
 0.00469966,0.00029215,-0.00028630,0.00038064,-0.32795271,0.02247208,-0
 .04933822,0.00158468,0.00119873,-0.00168140,-0.00006639,0.00009431,-0.
 00000940,-0.00623220,-0.00098567,0.00008463,0.34792890,-0.00011248,-0.
 00006083,-0.00002978,0.00002940,-0.00000399,-0.00002053,0.00026163,-0.
 00013192,0.00027874,-0.00006534,0.00008180,-0.00003530,-0.00000384,0.0
 0001136,-0.00000237,0.00001592,0.00000271,0.00000509,-0.00001488,-0.00
 012248,0.00000835,0.00000010,-0.00000972,-0.00002627,-0.00001756,-0.00
 002400,0.00000345,0.00006329,0.00006687,-0.00003413,-0.00000018,-0.000
 00039,0.00000317,-0.00002740,0.00000738,-0.00000669,0.00000084,-0.0000
 0053,-0.00000039,-0.00000526,0.00000098,0.00000318,0.00001076,0.000018
 80,0.00000912,-0.00000145,-0.00000288,-0.00000340,0.00000105,0.0000012
 7,0.00000071,-0.00000224,-0.00000131,-0.00000106,-0.00000022,-0.000000
 09,-0.00000005,0.00000029,0.00000105,0.00000193,-0.00000046,-0.0000011
 1,-0.00000085,-0.00000053,-0.00000027,-0.00000017,-0.00003700,-0.00000
 895,0.00000360,0.00000715,-0.00001228,-0.00000549,-0.00000258,-0.00000
 133,-0.00000170,-0.00000018,0.00000271,0.00000275,-0.00000098,0.000000
 79,0.00000058,0.00000235,-0.00000095,-0.00000054,0.00000003,0.00000011
 ,-0.00000032,-0.00000256,-0.00000060,-0.00000058,-0.00000057,0.0000001
 1,0.00000001,0.00000018,0.00000008,-0.00000018,-0.00000003,0.00000014,
 -0.00000007,-0.00036899,-0.00004565,-0.00013343,0.00085023,-0.00124233
 ,-0.00198661,-0.00025555,0.00012557,-0.00026764,0.00008061,0.00006807,
 0.00003037,0.00003010,0.00001045,-0.00006023,0.00017755,-0.00010942,0.
 00006386,0.00022267,-0.00006147,0.00045586,0.00000346,0.00001458,-0.00
 001052,0.00002486,0.00003543,0.00001945,-0.00001090,0.00002816,0.00002
 490,-0.00119215,-0.00006332,0.00010939,-0.00171366,0.00175330,0.004935
 73,-0.01757311,0.00587246,-0.00453221,-0.00028081,-0.00101206,0.000144
 76,0.02125604,-0.05000075,0.01634004,0.00055507,0.00112304,0.00631878,
 0.00002616,-0.00048386,-0.00063574,0.02073843,0.00291025,0.00239615,-0
 .02360607,0.04280072,0.00005817,-0.00004579,-0.00004104,0.00002454,0.0
 0003386,-0.00000227,0.00005162,0.00028505,-0.00012904,-0.00002650,0.00
 001105,0.00001419,0.00003018,-0.00000313,-0.00000169,0.00000732,0.0000
 3400,0.00000499,0.00001796,0.00001357,-0.00001536,-0.00002395,-0.00002
 313,-0.00000882,0.00000216,-0.00000988,0.00000067,0.00001113,-0.000024
 68,-0.00000445,0.00000263,0.00000082,-0.00000177,0.00000105,0.00000110
 ,0.00002089,0.00000029,-0.00000019,-0.00000041,-0.00000289,0.00000113,
 0.00000138,0.00000595,0.00000943,0.00000633,-0.00000105,-0.00000178,-0
 .00000221,0.00000094,0.00000145,0.00000085,-0.00000098,-0.00000056,-0.
 00000044,-0.00000032,0.00000004,0.00000024,-0.00000004,0.00000071,0.00
 000110,0.00000007,-0.00000076,-0.00000043,-0.00000069,-0.00000048,-0.0
 0000023,-0.00001558,-0.00000792,0.00000079,0.00000290,-0.00000392,-0.0
 0000314,-0.00000021,-0.00000121,-0.00000024,0.00000026,0.00000249,0.00
 000141,-0.00000024,0.00000047,0.00000053,0.00000183,-0.00000140,-0.000
 00083,-0.00000014,-0.00000031,-0.00000027,-0.00000153,-0.00000054,-0.0
 0000114,-0.00000053,-0.00000024,-0.00000009,0.00000064,-0.00000030,-0.
 00000013,-0.00000030,0.00000012,0.00000025,0.00035763,-0.00009584,0.00
 000244,-0.00053612,-0.00196785,-0.00139930,0.00026763,-0.00020905,0.00
 012025,-0.00010078,0.00001540,0.00004379,-0.00002397,-0.00004650,-0.00
 000137,-0.00015030,0.00002236,-0.00011396,-0.00023308,0.00042072,-0.00
 009835,-0.00000116,-0.00000511,0.00001567,-0.00002655,0.00002076,0.000
 03176,0.00000425,0.00002687,0.00002709,0.00089888,0.00004818,0.0002170
 4,0.00109130,0.00496878,0.00189053,0.01628299,-0.00255356,0.00680495,0
 .00032622,-0.00000096,-0.00077474,-0.04828349,0.01599561,-0.05595450,-
 0.00077543,0.00647538,0.00078671,-0.00000103,-0.00064214,-0.00049083,-
 0.02211497,0.00070917,0.00058042,0.05336752,-0.02092571,0.05011231,-0.
 00002775,0.00005134,-0.00000152,-0.00000365,-0.00004402,0.00000118,0.0
 0026524,-0.00005221,0.00000606,-0.00006106,0.00009560,-0.00003195,-0.0
 0004392,0.00004184,0.00000203,-0.00001682,-0.00007363,0.00000701,-0.00
 009052,-0.00024051,0.00002744,0.00006384,0.00004671,-0.00002011,0.0000
 0971,0.00002992,-0.00000263,0.00007703,0.00018417,-0.00009309,-0.00000
 903,-0.00000227,0.00001978,0.00000898,0.00000311,0.00000570,0.00000089
 ,0.00000055,0.00000111,0.00000003,0.00000163,-0.00000304,-0.00000056,-
 0.00000232,-0.00000282,-0.00000075,0.00000286,0.00000121,-0.00000167,-
 0.00000075,-0.00000422,0.00000081,-0.00000072,-0.00000097,0.00000083,-
 0.00000045,-0.00000006,0.00000060,-0.00000321,0.00000117,-0.00000067,-
 0.00000064,0.00000064,0.00000097,0.00000020,0.00000083,0.00000396,0.00
 000752,-0.00000261,-0.00000627,0.00000187,0.00000473,0.00000105,-0.000
 00117,0.00000291,0.00000115,0.00000029,-0.00000368,-0.00000076,0.00000
 017,-0.00000091,-0.00000138,0.00000214,0.00000127,0.00000027,-0.000000
 35,0.00000344,0.00000068,0.00000058,-0.00000014,0.00000064,0.00000016,
 0.00000057,-0.00000027,-0.00000068,0.00000014,0.00000100,-0.00000060,-
 0.00000026,0.00000046,-0.00004116,0.00003982,0.00012940,0.00013458,-0.
 00006741,-0.00039112,-0.00012093,0.00004017,0.00015323,-0.00002779,0.0
 0006583,-0.00007571,-0.00001481,0.00001473,0.00004903,0.00002719,-0.00
 001679,0.00003623,-0.00002290,0.00002259,-0.00000053,0.00000246,-0.000
 00398,0.00001299,-0.00000592,0.00000014,0.00000052,0.00000115,-0.00000
 211,0.00079969,-0.00077433,0.00080914,-0.00259675,-0.00277322,0.001889
 39,-0.00100219,-0.00062591,0.00063340,0.00983825,-0.01463548,0.0153570
 8,-0.00563961,-0.00047029,-0.00073708,-0.08844965,0.05883775,-0.064033
 64,0.00100175,0.00051359,-0.00004262,-0.00486711,0.02100675,-0.0217027
 5,-0.00042594,0.00102139,-0.00109054,0.09026524,-0.00012967,-0.0000345
 4,0.00001118,0.00010359,0.00000076,0.00002157,0.00045013,0.00007456,0.
 00009627,-0.00008588,0.00009776,-0.00006712,-0.00005354,0.00005255,0.0
 0000205,0.00007342,-0.00003364,0.00000605,0.00006929,-0.00013890,0.000
 01092,-0.00003728,0.00000465,-0.00001642,-0.00004176,-0.00003636,-0.00
 001638,0.00001016,0.00006883,-0.00005998,0.00000159,-0.00000213,0.0000
 1224,0.00000636,0.00001044,0.00002333,0.00000172,-0.00000218,-0.000001
 70,-0.00001378,0.00000648,0.00000457,0.00002821,0.00005053,0.00003038,
 -0.00000428,-0.00000496,-0.00001397,0.00000358,0.00000624,-0.00000115,
 -0.00000778,-0.00000169,-0.00000303,-0.00000100,-0.00000111,0.00000076
 ,0.00000227,-0.00000191,0.00001115,-0.00000063,-0.00000519,-0.00000022
 ,-0.00000147,-0.00000209,0.00000041,-0.00009902,-0.00001863,-0.0000040
 2,0.00002280,-0.00003290,-0.00001717,-0.00000737,-0.00000653,-0.000002
 66,-0.00000045,0.00000961,0.00000897,-0.00000244,0.00000320,0.00000147
 ,0.00000686,-0.00000276,-0.00000499,0.00000010,-0.00000208,-0.00000191
 ,-0.00000723,-0.00000152,-0.00000199,-0.00000183,-0.00000042,0.0000005
 3,0.00000058,-0.00000029,0.00000041,-0.00000081,-0.00000011,0.00000056
 ,-0.00001644,0.00001703,0.00002599,0.00007242,-0.00016242,-0.00025066,
 -0.00027336,-0.00019986,0.00001563,0.00008999,-0.00018458,-0.00019386,
 0.00000065,-0.00003176,0.00003161,0.00000412,-0.00004930,-0.00001909,-
 0.00000059,0.00003023,0.00002451,-0.00000452,-0.00000694,0.00000066,0.
 00000217,0.00004596,0.00005660,0.00000369,-0.00000296,0.00000770,0.000
 30578,-0.00004676,0.00092022,-0.00300032,0.00258223,0.00386244,-0.0003
 5457,-0.00028914,-0.00059727,0.00697138,-0.00751848,0.01155097,-0.0000
 4147,0.00376406,0.00228963,0.05853891,-0.16804684,0.13786482,0.0000795
 2,-0.00166135,-0.00265524,-0.00096034,0.00182498,0.00096901,-0.0000990
 8,0.00005221,0.00009648,-0.06203309,0.17125300,0.00007843,-0.00004066,
 -0.00002798,-0.00005460,0.00004160,-0.00000108,-0.00052357,0.00011126,
 -0.00000015,0.00016605,-0.00025637,0.00002671,0.00010048,-0.00011299,-
 0.00002812,-0.00008307,0.00012723,0.00000233,0.00012482,0.00053652,0.0
 0000240,-0.00010112,-0.00007776,0.00004461,0.00000618,-0.00001849,0.00
 000386,-0.00014445,-0.00043756,0.00003036,0.00000745,0.00001641,-0.000
 01050,-0.00001604,-0.00001250,-0.00000527,0.00000126,0.00000486,0.0000
 0312,0.00000906,-0.00000493,-0.00000900,-0.00001596,-0.00004479,-0.000
 01611,-0.00000076,0.00000824,0.00000798,-0.00000674,-0.00000379,-0.000
 00228,0.00000890,-0.00000166,-0.00000115,0.00000157,0.00000084,-0.0000
 0044,0.00000029,-0.00000047,-0.00000155,-0.00000063,0.00000023,0.00000
 015,0.00000058,0.00000084,0.,0.00011641,0.00000082,-0.00001083,-0.0000
 4237,0.00004686,0.00002321,0.00001546,0.00000926,0.00001089,0.00000397
 ,-0.00001083,-0.00000613,-0.00000105,-0.00000305,0.00000008,-0.0000037
 5,-0.00000208,0.00000336,-0.00000190,0.00000539,-0.00000061,0.00000701
 ,-0.00000176,-0.00000181,0.00000108,0.00000044,-0.00000030,0.00000100,
 -0.00000028,-0.00000334,0.00000126,0.00000027,-0.00000131,-0.00003588,
 0.00005806,-0.00001976,0.00000086,-0.00032206,-0.00015216,0.00036403,0
 .00004012,-0.00003388,-0.00008907,-0.00013557,-0.00022834,0.00007584,0
 .00001457,-0.00001548,-0.00003967,-0.00006352,-0.00000776,0.00000026,0
 .00002270,0.00002977,0.00000419,0.00000058,-0.00000542,-0.00001108,0.0
 0005690,0.00003942,-0.00000362,0.00000638,-0.00000143,-0.00034380,0.00
 095978,-0.00015114,0.00216253,0.00388913,0.00317083,0.00040424,-0.0005
 9592,-0.00018655,-0.00583830,0.00970235,-0.00684749,-0.00131449,0.0021
 5998,0.00383900,-0.06354012,0.13741626,-0.17901323,0.00003321,-0.00262
 780,-0.00167160,0.00003341,0.00340362,-0.00046958,0.00002978,0.0002450
 2,-0.00007632,0.06841578,-0.15188872,0.18320201,-0.00006342,-0.0000788
 2,0.00001992,0.00009021,0.00003187,-0.00000347,0.00006629,0.00012877,-
 0.00000523,0.00000101,-0.00000647,0.00003762,-0.00000739,0.00003406,0.
 00003004,0.00009609,0.00000870,-0.00000687,0.00017311,0.00001644,-0.00
 005621,-0.00007844,-0.00001292,-0.00000568,-0.00003946,-0.00005108,-0.
 00000277,-0.00010255,0.00000946,0.00008064,0.00000592,-0.00001049,-0.0
 0000431,-0.00000910,0.00000730,-0.00000263,-0.00000112,-0.00000413,-0.
 00000330,-0.00001092,0.00000552,0.00000716,0.00001992,0.00004523,0.000
 02672,0.00000211,-0.00001032,-0.00001136,0.00000642,0.00000643,0.00000
 460,-0.00000897,0.00000081,0.00000041,-0.00000217,-0.00000054,0.000000
 67,0.00000106,0.00000287,0.00000420,0.00000100,-0.00000147,-0.00000059
 ,-0.00000196,-0.00000153,-0.00000054,-0.00010735,-0.00001629,0.0000046
 5,0.00003965,-0.00003803,-0.00002723,-0.00001228,-0.00000890,-0.000007
 89,-0.00000313,0.00000978,0.00001156,0.00000049,0.00000294,0.00000142,
 0.00000613,-0.00000264,-0.00000486,0.00000105,-0.00000346,-0.00000486,
 -0.00000835,-0.00000003,0.00000015,-0.00000193,-0.00000066,-0.00000009
 ,0.00000006,0.00000093,0.00000209,-0.00000216,0.00000041,0.00000126,-0
 .00000909,0.00001906,-0.00001277,0.00059006,0.00010600,-0.00015558,-0.
 00007325,0.00009832,-0.00005115,0.00005939,0.00002986,-0.00002217,0.00
 005202,-0.00001592,0.00002098,-0.00005034,-0.00003889,0.00004217,-0.00
 001488,0.00000071,-0.00001088,0.00000125,0.00001466,-0.00001543,0.0000
 0224,-0.00000311,0.00000244,0.00000246,-0.00000004,-0.00000160,0.00001
 852,-0.00008696,0.00012589,-0.00046744,0.00090873,-0.00095938,0.000067
 72,0.00166347,-0.00237203,-0.00485131,0.00117960,-0.00229742,0.0105117
 3,0.00742713,-0.00667189,-0.01477382,-0.01869842,0.01700471,-0.0007019
 7,-0.00093643,0.00076584,-0.17594273,-0.10505330,0.09097758,0.00081591
 ,-0.00008260,0.00059633,0.00098919,0.00043072,0.00003664,0.18372453,-0
 .00004921,0.00003011,-0.00001129,0.00003308,0.00003237,0.00000938,0.00
 007120,-0.00002115,-0.00008579,-0.00009174,0.00005458,0.00005516,-0.00
 000631,0.00001668,0.00002253,0.00005754,0.00001601,-0.00000115,0.00004
 006,-0.00006554,0.00000274,-0.00004027,-0.00002599,-0.00000905,-0.0000
 2117,-0.00003446,-0.00000726,-0.00000676,0.00000371,-0.00002271,0.0000
 0392,-0.00000182,0.00000006,0.00001549,0.00001035,0.00002059,0.0000004
 4,-0.00000247,-0.00000198,-0.00001047,0.00000280,0.00000681,0.00001912
 ,0.00003972,0.00002187,-0.00000170,-0.00000624,-0.00001013,0.00000426,
 0.00000385,0.00000267,-0.00000586,-0.00000023,-0.00000087,-0.00000133,
 -0.00000029,0.00000047,0.00000072,0.00000147,0.00000460,0.00000023,-0.
 00000209,-0.00000083,-0.00000156,-0.00000130,-0.00000048,-0.00008341,-
 0.00001757,-0.00000181,0.00002412,-0.00002831,-0.00001494,-0.00000710,
 -0.00000476,-0.00000582,-0.00000155,0.00000812,0.00000780,-0.00000020,
 0.00000269,0.00000182,0.00000587,-0.00000291,-0.00000372,0.00000020,-0
 .00000142,-0.00000252,-0.00000639,-0.00000160,-0.00000105,-0.00000154,
 -0.00000034,-0.00000013,0.00000058,0.00000038,0.00000048,-0.00000112,0
 .00000042,0.00000055,-0.00006866,-0.00002161,0.00000802,-0.00091676,0.
 00038927,0.00036494,0.00019513,-0.00051171,0.00003182,-0.00010099,-0.0
 0002570,-0.00007245,0.00000410,-0.00000785,0.00004575,0.00002803,-0.00
 003932,-0.00002917,0.00001860,0.00003588,0.00002798,-0.00000490,-0.000
 03831,0.00001639,-0.00000068,-0.00000291,0.00000753,0.00000409,-0.0000
 0874,0.00002485,-0.00002979,-0.00018954,-0.00027738,0.00068203,-0.0002
 2991,-0.00011363,0.00202608,0.00160539,0.00567599,0.00069111,0.0036264
 8,0.00249145,-0.01433077,-0.00788046,0.00889352,0.00327912,0.00433614,
 -0.00180586,0.00021457,0.00024227,0.00006495,-0.10491686,-0.13859889,0
 .09385118,0.00035987,-0.00158793,-0.00262208,-0.00004613,-0.00142497,-
 0.00222299,0.11297367,0.14032764,0.00006556,0.00002765,-0.00000850,-0.
 00008382,0.00002443,-0.00000105,-0.00023205,0.00001544,-0.00011994,0.0
 0001952,-0.00005617,0.00009449,0.00006685,-0.00005092,0.00001128,-0.00
 005802,0.00005551,0.00000123,-0.00000408,0.00008450,0.00000257,-0.0000
 1275,-0.00003366,0.00000145,0.00002037,-0.00000286,0.00000238,-0.00002
 356,-0.00009156,-0.00003166,-0.00000235,0.00000445,0.00000385,-0.00000
 993,-0.00000637,-0.00000980,0.00000105,0.00000281,0.00000166,0.0000029
 5,-0.00000385,-0.00000201,-0.00000464,-0.00001663,-0.00000771,-0.00000
 130,0.00000421,0.00000443,-0.00000312,-0.00000239,-0.00000229,0.000004
 07,-0.00000140,-0.00000150,0.00000113,0.00000018,-0.00000024,0.0000001
 6,-0.00000054,-0.00000115,-0.00000085,-0.00000041,0.,0.00000055,0.0000
 0049,0.00000030,0.00004653,-0.00000100,-0.00000664,-0.00002113,0.00001
 838,0.00001312,0.00000672,0.00000697,0.00000230,0.00000203,-0.00000392
 ,-0.00000384,-0.00000052,-0.00000158,0.00000039,-0.00000162,-0.0000000
 2,0.00000225,-0.00000086,0.00000258,0.00000153,0.00000287,-0.00000066,
 -0.00000127,0.00000065,0.00000025,0.00000021,0.00000036,-0.00000070,-0
 .00000153,0.00000116,-0.00000019,-0.00000074,0.00009241,0.00002119,0.0
 0001034,0.00087795,0.00041123,0.00040133,-0.00014619,0.00012563,-0.000
 55250,0.00013737,-0.00007220,0.00000578,-0.00002805,0.00004094,-0.0000
 0728,-0.00000481,-0.00002393,-0.00005171,-0.00002334,0.00002021,0.0000
 3264,0.00000947,0.00002175,-0.00004419,-0.00000020,0.00000814,-0.00000
 186,-0.00000469,0.00002417,-0.00001152,0.00029467,-0.00033202,-0.00008
 597,-0.00063499,-0.00012262,-0.00041100,-0.00287875,0.00565310,0.00127
 057,-0.00180950,0.00262072,0.00327467,0.01526014,0.01129856,-0.0074003
 5,-0.00506214,-0.00411603,0.00582064,-0.00023892,-0.00005307,0.0002975
 3,0.09088893,0.09366263,-0.11924209,0.00008662,-0.00268306,-0.00156319
 ,0.00048961,-0.00214155,-0.00143201,-0.09708750,-0.10433682,0.11974662
 \\-0.00000028,-0.00000024,0.00000019,0.00000003,0.00000041,-0.00000006
 ,0.00000061,-0.00000021,0.00000019,-0.00000004,0.00000028,-0.00000045,
 -0.00000004,-0.00000020,0.,-0.00000023,0.00000022,-0.00000020,0.000000
 14,-0.00000028,-0.00000034,-0.00000008,0.00000006,0.00000061,-0.000000
 01,-0.00000016,0.00000022,0.00000013,0.00000007,0.00000008,0.00000017,
 0.00000006,0.00000004,-0.00000019,-0.00000020,-0.00000018,-0.00000014,
 0.00000038,0.00000007,0.,0.00000024,0.00000007,-0.00000017,0.00000007,
 -0.00000023,-0.00000004,0.00000041,-0.00000024,-0.00000024,0.00000030,
 0.00000004,-0.00000007,0.00000032,-0.00000002,-0.00000009,0.00000046,-
 0.00000002,-0.00000046,0.00000008,-0.00000004,-0.00000019,0.00000024,0
 .00000002,-0.00000020,0.00000040,0.,0.00000042,0.00000024,0.00000031,0
 .00000006,0.00000047,-0.00000024,0.00000004,0.00000036,0.00000005,0.00
 000007,0.00000023,-0.00000012,0.00000008,0.00000037,-0.00000008,0.0000
 0017,0.00000033,0.,0.00000017,0.00000017,0.00000001,0.00000014,0.00000
 040,0.00000007,0.00000002,0.00000046,0.,0.00000021,0.00000028,0.,0.000
 00013,0.00000044,0.,0.00000013,-0.00000058,0.00000009,-0.00000023,-0.0
 0000039,-0.00000003,0.,-0.00000051,0.00000001,0.00000006,-0.00000034,0
 .00000021,-0.00000034,-0.00000026,-0.00000009,0.00000006,-0.00000022,0
 .00000002,-0.00000004,-0.00000045,0.00000001,-0.00000014,-0.00000015,0
 .00000011,-0.00000020,-0.00000031,0.,-0.00000014,-0.00000047,-0.000000
 04,-0.00000022,0.00000021,-0.00000007,0.,-0.00000018,0.,-0.00000004,-0
 .00000024,-0.00000010,0.00000008,-0.00000038,0.00000011,0.00000022,-0.
 00000050,0.00000013,0.00000027,-0.00000016,-0.00000002,-0.00000002,-0.
 00000006,-0.00000004,0.00000005,-0.00000028,-0.00000009,0.00000006,-0.
 00000047,0.,0.00000014,-0.00000029,0.00000002,0.00000017,-0.00000042,0
 .00000002\\\@
 The archive entry for this job was punched.


 IT IS A PROFOUNDLY ERRONEOUS TRUISM ... THAT WE SHOULD CULTIVATE
 THE HABIT OF THINKING OF WHAT WE ARE DOING.
 THE PRECISE OPPOSITE IS THE CASE.
 CIVILIZATION ADVANCES BY EXTENDING THE NUMBER OF IMPORTANT OPERATIONS
 WHICH WE CAN PERFORM WITHOUT THINKING ABOUT THEM.

                                    -- ALFRED NORTH WHITEHEAD
 Job cpu time:       1 days 16 hours 14 minutes  1.6 seconds.
 Elapsed time:       0 days  1 hours 40 minutes 40.9 seconds.
 File lengths (MBytes):  RWF=   2747 Int=      0 D2E=      0 Chk=     49 Scr=      1
 Normal termination of Gaussian 16 at Mon Nov 13 11:11:00 2023.
