 Entering Gaussian System, Link 0=g16
 Initial command:
 /home/aderezen/G16/AVX2//g16/l1.exe "/lustre/scratch/natrosa/12360596/Gau-182438.inp" -scrdir="/lustre/scratch/natrosa/12360596/"
 Entering Link 1 = /home/aderezen/G16/AVX2//g16/l1.exe PID=    182443.
  
 Copyright (c) 1988-2019, Gaussian, Inc.  All Rights Reserved.
  
 This is part of the Gaussian(R) 16 program.  It is based on
 the Gaussian(R) 09 system (copyright 2009, Gaussian, Inc.),
 the Gaussian(R) 03 system (copyright 2003, Gaussian, Inc.),
 the Gaussian(R) 98 system (copyright 1998, Gaussian, Inc.),
 the Gaussian(R) 94 system (copyright 1995, Gaussian, Inc.),
 the Gaussian 92(TM) system (copyright 1992, Gaussian, Inc.),
 the Gaussian 90(TM) system (copyright 1990, Gaussian, Inc.),
 the Gaussian 88(TM) system (copyright 1988, Gaussian, Inc.),
 the Gaussian 86(TM) system (copyright 1986, Carnegie Mellon
 University), and the Gaussian 82(TM) system (copyright 1983,
 Carnegie Mellon University). Gaussian is a federally registered
 trademark of Gaussian, Inc.
  
 This software contains proprietary and confidential information,
 including trade secrets, belonging to Gaussian, Inc.
  
 This software is provided under written license and may be
 used, copied, transmitted, or stored only in accord with that
 written license.
  
 The following legend is applicable only to US Government
 contracts under FAR:
  
                    RESTRICTED RIGHTS LEGEND
  
 Use, reproduction and disclosure by the US Government is
 subject to restrictions as set forth in subparagraphs (a)
 and (c) of the Commercial Computer Software - Restricted
 Rights clause in FAR 52.227-19.
  
 Gaussian, Inc.
 340 Quinnipiac St., Bldg. 40, Wallingford CT 06492
  
  
 ---------------------------------------------------------------
 Warning -- This program may not be used in any manner that
 competes with the business of Gaussian, Inc. or will provide
 assistance to any competitor of Gaussian, Inc.  The licensee
 of this program is prohibited from giving any competitor of
 Gaussian, Inc. access to this program.  By using this program,
 the user acknowledges that Gaussian, Inc. is engaged in the
 business of creating and licensing software in the field of
 computational chemistry and represents and warrants to the
 licensee that it is not a competitor of Gaussian, Inc. and that
 it will not use this program in any manner prohibited above.
 ---------------------------------------------------------------
  

 Cite this work as:
 Gaussian 16, Revision C.01,
 M. J. Frisch, G. W. Trucks, H. B. Schlegel, G. E. Scuseria, 
 M. A. Robb, J. R. Cheeseman, G. Scalmani, V. Barone, 
 G. A. Petersson, H. Nakatsuji, X. Li, M. Caricato, A. V. Marenich, 
 J. Bloino, B. G. Janesko, R. Gomperts, B. Mennucci, H. P. Hratchian, 
 J. V. Ortiz, A. F. Izmaylov, J. L. Sonnenberg, D. Williams-Young, 
 F. Ding, F. Lipparini, F. Egidi, J. Goings, B. Peng, A. Petrone, 
 T. Henderson, D. Ranasinghe, V. G. Zakrzewski, J. Gao, N. Rega, 
 G. Zheng, W. Liang, M. Hada, M. Ehara, K. Toyota, R. Fukuda, 
 J. Hasegawa, M. Ishida, T. Nakajima, Y. Honda, O. Kitao, H. Nakai, 
 T. Vreven, K. Throssell, J. A. Montgomery, Jr., J. E. Peralta, 
 F. Ogliaro, M. J. Bearpark, J. J. Heyd, E. N. Brothers, K. N. Kudin, 
 V. N. Staroverov, T. A. Keith, R. Kobayashi, J. Normand, 
 K. Raghavachari, A. P. Rendell, J. C. Burant, S. S. Iyengar, 
 J. Tomasi, M. Cossi, J. M. Millam, M. Klene, C. Adamo, R. Cammi, 
 J. W. Ochterski, R. L. Martin, K. Morokuma, O. Farkas, 
 J. B. Foresman, and D. J. Fox, Gaussian, Inc., Wallingford CT, 2019.
 
 ******************************************
 Gaussian 16:  ES64L-G16RevC.01  3-Jul-2019
                14-Nov-2023 
 ******************************************
 %chk=SUB-12-CATION.chk
 %nprocshared=24
 Will use up to   24 processors via shared memory.
 %mem=5500MB
 ----------------------------------------------------
 # opt=tight freq b3lyp/6-31+g(d,p) geom=connectivity
 ----------------------------------------------------
 1/7=10,18=20,19=15,26=3,38=1,57=2/1,3;
 2/9=110,12=2,17=6,18=5,40=1/2;
 3/5=1,6=6,7=111,11=2,25=1,30=1,71=1,74=-5/1,2,3;
 4//1;
 5/5=2,38=5/2;
 6/7=2,8=2,9=2,10=2,28=1/1;
 7//1,2,3,16;
 1/7=10,18=20,19=15,26=3/3(2);
 2/9=110/2;
 99//99;
 2/9=110/2;
 3/5=1,6=6,7=111,11=2,25=1,30=1,71=1,74=-5/1,2,3;
 4/5=5,16=3,69=1/1;
 5/5=2,38=5/2;
 7//1,2,3,16;
 1/7=10,18=20,19=15,26=3/3(-5);
 2/9=110/2;
 6/7=2,8=2,9=2,10=2,19=2,28=1/1;
 99/9=1/99;
 -------
 Energy:
 -------
 Symbolic Z-matrix:
 Charge =  1 Multiplicity = 2
 N                     1.21471  -1.73375   0.05954 
 C                    -0.20886  -1.80818  -0.01906 
 C                     1.68654  -0.42953  -0.01969 
 C                     0.59708   0.40957  -0.13096 
 C                    -0.59708  -0.40957  -0.13096 
 C                    -1.68654   0.42953  -0.0197 
 C                     0.20886   1.80818  -0.01906 
 N                    -1.21471   1.73375   0.05954 
 O                    -0.83083  -2.86149  -0.00224 
 O                     0.83083   2.86149  -0.00224 
 H                    -1.79105   2.55862  -0.03699 
 H                     1.79105  -2.55863  -0.03699 
 C                    -6.04934  -1.39737  -1.21805 
 C                    -5.12971  -0.61062  -0.51532 
 C                    -3.74759  -0.74665  -0.77909 
 C                    -3.2634   -1.63698  -1.73661 
 C                    -4.19893  -2.41002  -2.42591 
 C                    -5.57607  -2.29737  -2.17123 
 H                    -7.11424  -1.30394  -1.02658 
 H                    -2.20506  -1.75082  -1.92705 
 H                    -3.84784  -3.11989  -3.16846 
 H                    -6.27596  -2.91769  -2.72255 
 N                    -3.04114   0.17702   0.03143 
 C                    -3.98225   0.88373   0.8183 
 C                    -5.27877   0.41672   0.49877 
 C                    -3.77163   1.84114   1.81455 
 C                    -6.38842   0.94744   1.16577 
 C                    -4.89478   2.35791   2.46471 
 H                    -2.77686   2.16467   2.09822 
 C                    -6.19076   1.92382   2.14147 
 H                    -7.38926   0.59686   0.93189 
 H                    -4.75636   3.10387   3.24132 
 H                    -7.04349   2.34424   2.66541 
 C                     6.38842  -0.94745   1.16575 
 C                     5.27878  -0.41673   0.49876 
 C                     3.98226  -0.88373   0.8183 
 C                     3.77164  -1.84114   1.81455 
 C                     4.89479  -2.35791   2.4647 
 C                     6.19077  -1.92383   2.14146 
 H                     7.38926  -0.59686   0.93187 
 H                     2.77687  -2.16467   2.09823 
 H                     4.75638  -3.10388   3.24131 
 H                     7.0435   -2.34425   2.66538 
 N                     3.04114  -0.17702   0.03144 
 C                     3.74758   0.74665  -0.77908 
 C                     5.12971   0.61062  -0.51532 
 C                     3.26339   1.63699  -1.73659 
 C                     6.04934   1.39737  -1.21805 
 C                     4.19891   2.41003  -2.4259 
 H                     2.20504   1.75083  -1.92702 
 C                     5.57605   2.29738  -2.17122 
 H                     7.11424   1.30394  -1.02659 
 H                     3.84782   3.1199   -3.16844 
 H                     6.27595   2.9177   -2.72255 
 

 GradGradGradGradGradGradGradGradGradGradGradGradGradGradGradGradGradGrad
 Berny optimization.
 Initialization pass.
                           ----------------------------
                           !    Initial Parameters    !
                           ! (Angstroms and Degrees)  !
 --------------------------                            --------------------------
 ! Name  Definition              Value          Derivative Info.                !
 --------------------------------------------------------------------------------
 ! R1    R(1,2)                  1.4277         estimate D2E/DX2                !
 ! R2    R(1,3)                  1.3892         estimate D2E/DX2                !
 ! R3    R(1,12)                 1.0109         estimate D2E/DX2                !
 ! R4    R(2,5)                  1.4558         estimate D2E/DX2                !
 ! R5    R(2,9)                  1.2233         estimate D2E/DX2                !
 ! R6    R(3,4)                  1.3796         estimate D2E/DX2                !
 ! R7    R(3,44)                 1.3789         estimate D2E/DX2                !
 ! R8    R(4,5)                  1.4481         estimate D2E/DX2                !
 ! R9    R(4,7)                  1.4558         estimate D2E/DX2                !
 ! R10   R(5,6)                  1.3796         estimate D2E/DX2                !
 ! R11   R(6,8)                  1.3892         estimate D2E/DX2                !
 ! R12   R(6,23)                 1.3789         estimate D2E/DX2                !
 ! R13   R(7,8)                  1.4277         estimate D2E/DX2                !
 ! R14   R(7,10)                 1.2233         estimate D2E/DX2                !
 ! R15   R(8,11)                 1.0109         estimate D2E/DX2                !
 ! R16   R(13,14)                1.3995         estimate D2E/DX2                !
 ! R17   R(13,18)                1.3938         estimate D2E/DX2                !
 ! R18   R(13,19)                1.086          estimate D2E/DX2                !
 ! R19   R(14,15)                1.4136         estimate D2E/DX2                !
 ! R20   R(14,25)                1.4512         estimate D2E/DX2                !
 ! R21   R(15,16)                1.3943         estimate D2E/DX2                !
 ! R22   R(15,23)                1.4175         estimate D2E/DX2                !
 ! R23   R(16,17)                1.3957         estimate D2E/DX2                !
 ! R24   R(16,20)                1.0814         estimate D2E/DX2                !
 ! R25   R(17,18)                1.405          estimate D2E/DX2                !
 ! R26   R(17,21)                1.0856         estimate D2E/DX2                !
 ! R27   R(18,22)                1.0856         estimate D2E/DX2                !
 ! R28   R(23,24)                1.4157         estimate D2E/DX2                !
 ! R29   R(24,25)                1.4146         estimate D2E/DX2                !
 ! R30   R(24,26)                1.3977         estimate D2E/DX2                !
 ! R31   R(25,27)                1.3992         estimate D2E/DX2                !
 ! R32   R(26,28)                1.3969         estimate D2E/DX2                !
 ! R33   R(26,29)                1.0838         estimate D2E/DX2                !
 ! R34   R(27,30)                1.3944         estimate D2E/DX2                !
 ! R35   R(27,31)                1.086          estimate D2E/DX2                !
 ! R36   R(28,30)                1.4044         estimate D2E/DX2                !
 ! R37   R(28,32)                1.0857         estimate D2E/DX2                !
 ! R38   R(30,33)                1.0855         estimate D2E/DX2                !
 ! R39   R(34,35)                1.3992         estimate D2E/DX2                !
 ! R40   R(34,39)                1.3944         estimate D2E/DX2                !
 ! R41   R(34,40)                1.086          estimate D2E/DX2                !
 ! R42   R(35,36)                1.4146         estimate D2E/DX2                !
 ! R43   R(35,46)                1.4512         estimate D2E/DX2                !
 ! R44   R(36,37)                1.3977         estimate D2E/DX2                !
 ! R45   R(36,44)                1.4157         estimate D2E/DX2                !
 ! R46   R(37,38)                1.3969         estimate D2E/DX2                !
 ! R47   R(37,41)                1.0838         estimate D2E/DX2                !
 ! R48   R(38,39)                1.4044         estimate D2E/DX2                !
 ! R49   R(38,42)                1.0857         estimate D2E/DX2                !
 ! R50   R(39,43)                1.0855         estimate D2E/DX2                !
 ! R51   R(44,45)                1.4175         estimate D2E/DX2                !
 ! R52   R(45,46)                1.4136         estimate D2E/DX2                !
 ! R53   R(45,47)                1.3943         estimate D2E/DX2                !
 ! R54   R(46,48)                1.3995         estimate D2E/DX2                !
 ! R55   R(47,49)                1.3957         estimate D2E/DX2                !
 ! R56   R(47,50)                1.0814         estimate D2E/DX2                !
 ! R57   R(48,51)                1.3938         estimate D2E/DX2                !
 ! R58   R(48,52)                1.086          estimate D2E/DX2                !
 ! R59   R(49,51)                1.405          estimate D2E/DX2                !
 ! R60   R(49,53)                1.0856         estimate D2E/DX2                !
 ! R61   R(51,54)                1.0856         estimate D2E/DX2                !
 ! A1    A(2,1,3)              112.6109         estimate D2E/DX2                !
 ! A2    A(2,1,12)             121.3787         estimate D2E/DX2                !
 ! A3    A(3,1,12)             124.5398         estimate D2E/DX2                !
 ! A4    A(1,2,5)              102.7118         estimate D2E/DX2                !
 ! A5    A(1,2,9)              123.4414         estimate D2E/DX2                !
 ! A6    A(5,2,9)              133.8409         estimate D2E/DX2                !
 ! A7    A(1,3,4)              107.9018         estimate D2E/DX2                !
 ! A8    A(1,3,44)             120.23           estimate D2E/DX2                !
 ! A9    A(4,3,44)             131.8651         estimate D2E/DX2                !
 ! A10   A(3,4,5)              107.8877         estimate D2E/DX2                !
 ! A11   A(3,4,7)              142.0635         estimate D2E/DX2                !
 ! A12   A(5,4,7)              108.8772         estimate D2E/DX2                !
 ! A13   A(2,5,4)              108.8772         estimate D2E/DX2                !
 ! A14   A(2,5,6)              142.0636         estimate D2E/DX2                !
 ! A15   A(4,5,6)              107.8877         estimate D2E/DX2                !
 ! A16   A(5,6,8)              107.9018         estimate D2E/DX2                !
 ! A17   A(5,6,23)             131.8653         estimate D2E/DX2                !
 ! A18   A(8,6,23)             120.2298         estimate D2E/DX2                !
 ! A19   A(4,7,8)              102.7118         estimate D2E/DX2                !
 ! A20   A(4,7,10)             133.8409         estimate D2E/DX2                !
 ! A21   A(8,7,10)             123.4414         estimate D2E/DX2                !
 ! A22   A(6,8,7)              112.6109         estimate D2E/DX2                !
 ! A23   A(6,8,11)             124.5398         estimate D2E/DX2                !
 ! A24   A(7,8,11)             121.3788         estimate D2E/DX2                !
 ! A25   A(14,13,18)           118.9006         estimate D2E/DX2                !
 ! A26   A(14,13,19)           120.4949         estimate D2E/DX2                !
 ! A27   A(18,13,19)           120.6038         estimate D2E/DX2                !
 ! A28   A(13,14,15)           119.649          estimate D2E/DX2                !
 ! A29   A(13,14,25)           132.9507         estimate D2E/DX2                !
 ! A30   A(15,14,25)           107.3936         estimate D2E/DX2                !
 ! A31   A(14,15,16)           121.9462         estimate D2E/DX2                !
 ! A32   A(14,15,23)           108.5348         estimate D2E/DX2                !
 ! A33   A(16,15,23)           129.4748         estimate D2E/DX2                !
 ! A34   A(15,16,17)           117.3928         estimate D2E/DX2                !
 ! A35   A(15,16,20)           121.874          estimate D2E/DX2                !
 ! A36   A(17,16,20)           120.7139         estimate D2E/DX2                !
 ! A37   A(16,17,18)           121.5384         estimate D2E/DX2                !
 ! A38   A(16,17,21)           118.8949         estimate D2E/DX2                !
 ! A39   A(18,17,21)           119.5641         estimate D2E/DX2                !
 ! A40   A(13,18,17)           120.5688         estimate D2E/DX2                !
 ! A41   A(13,18,22)           119.825          estimate D2E/DX2                !
 ! A42   A(17,18,22)           119.6062         estimate D2E/DX2                !
 ! A43   A(6,23,15)            125.997          estimate D2E/DX2                !
 ! A44   A(6,23,24)            125.6084         estimate D2E/DX2                !
 ! A45   A(15,23,24)           108.1677         estimate D2E/DX2                !
 ! A46   A(23,24,25)           108.5976         estimate D2E/DX2                !
 ! A47   A(23,24,26)           129.6383         estimate D2E/DX2                !
 ! A48   A(25,24,26)           121.685          estimate D2E/DX2                !
 ! A49   A(14,25,24)           107.3017         estimate D2E/DX2                !
 ! A50   A(14,25,27)           133.0837         estimate D2E/DX2                !
 ! A51   A(24,25,27)           119.6            estimate D2E/DX2                !
 ! A52   A(24,26,28)           117.6465         estimate D2E/DX2                !
 ! A53   A(24,26,29)           121.9607         estimate D2E/DX2                !
 ! A54   A(28,26,29)           120.3796         estimate D2E/DX2                !
 ! A55   A(25,27,30)           119.1251         estimate D2E/DX2                !
 ! A56   A(25,27,31)           120.3827         estimate D2E/DX2                !
 ! A57   A(30,27,31)           120.4902         estimate D2E/DX2                !
 ! A58   A(26,28,30)           121.365          estimate D2E/DX2                !
 ! A59   A(26,28,32)           118.9871         estimate D2E/DX2                !
 ! A60   A(30,28,32)           119.6457         estimate D2E/DX2                !
 ! A61   A(27,30,28)           120.5483         estimate D2E/DX2                !
 ! A62   A(27,30,33)           119.8382         estimate D2E/DX2                !
 ! A63   A(28,30,33)           119.6091         estimate D2E/DX2                !
 ! A64   A(35,34,39)           119.1252         estimate D2E/DX2                !
 ! A65   A(35,34,40)           120.3826         estimate D2E/DX2                !
 ! A66   A(39,34,40)           120.4902         estimate D2E/DX2                !
 ! A67   A(34,35,36)           119.6            estimate D2E/DX2                !
 ! A68   A(34,35,46)           133.0837         estimate D2E/DX2                !
 ! A69   A(36,35,46)           107.3016         estimate D2E/DX2                !
 ! A70   A(35,36,37)           121.685          estimate D2E/DX2                !
 ! A71   A(35,36,44)           108.5975         estimate D2E/DX2                !
 ! A72   A(37,36,44)           129.6383         estimate D2E/DX2                !
 ! A73   A(36,37,38)           117.6465         estimate D2E/DX2                !
 ! A74   A(36,37,41)           121.9607         estimate D2E/DX2                !
 ! A75   A(38,37,41)           120.3796         estimate D2E/DX2                !
 ! A76   A(37,38,39)           121.365          estimate D2E/DX2                !
 ! A77   A(37,38,42)           118.987          estimate D2E/DX2                !
 ! A78   A(39,38,42)           119.6457         estimate D2E/DX2                !
 ! A79   A(34,39,38)           120.5483         estimate D2E/DX2                !
 ! A80   A(34,39,43)           119.8383         estimate D2E/DX2                !
 ! A81   A(38,39,43)           119.609          estimate D2E/DX2                !
 ! A82   A(3,44,36)            125.6085         estimate D2E/DX2                !
 ! A83   A(3,44,45)            125.9968         estimate D2E/DX2                !
 ! A84   A(36,44,45)           108.1677         estimate D2E/DX2                !
 ! A85   A(44,45,46)           108.5348         estimate D2E/DX2                !
 ! A86   A(44,45,47)           129.4748         estimate D2E/DX2                !
 ! A87   A(46,45,47)           121.9462         estimate D2E/DX2                !
 ! A88   A(35,46,45)           107.3937         estimate D2E/DX2                !
 ! A89   A(35,46,48)           132.9507         estimate D2E/DX2                !
 ! A90   A(45,46,48)           119.649          estimate D2E/DX2                !
 ! A91   A(45,47,49)           117.3928         estimate D2E/DX2                !
 ! A92   A(45,47,50)           121.874          estimate D2E/DX2                !
 ! A93   A(49,47,50)           120.7139         estimate D2E/DX2                !
 ! A94   A(46,48,51)           118.9006         estimate D2E/DX2                !
 ! A95   A(46,48,52)           120.4949         estimate D2E/DX2                !
 ! A96   A(51,48,52)           120.6038         estimate D2E/DX2                !
 ! A97   A(47,49,51)           121.5384         estimate D2E/DX2                !
 ! A98   A(47,49,53)           118.8949         estimate D2E/DX2                !
 ! A99   A(51,49,53)           119.5641         estimate D2E/DX2                !
 ! A100  A(48,51,49)           120.5688         estimate D2E/DX2                !
 ! A101  A(48,51,54)           119.8251         estimate D2E/DX2                !
 ! A102  A(49,51,54)           119.6061         estimate D2E/DX2                !
 ! D1    D(3,1,2,5)             -1.0546         estimate D2E/DX2                !
 ! D2    D(3,1,2,9)            178.1667         estimate D2E/DX2                !
 ! D3    D(12,1,2,5)          -167.8134         estimate D2E/DX2                !
 ! D4    D(12,1,2,9)            11.4078         estimate D2E/DX2                !
 ! D5    D(2,1,3,4)              0.9814         estimate D2E/DX2                !
 ! D6    D(2,1,3,44)          -179.5833         estimate D2E/DX2                !
 ! D7    D(12,1,3,4)           167.2485         estimate D2E/DX2                !
 ! D8    D(12,1,3,44)          -13.3161         estimate D2E/DX2                !
 ! D9    D(1,2,5,4)              0.7366         estimate D2E/DX2                !
 ! D10   D(1,2,5,6)           -164.4275         estimate D2E/DX2                !
 ! D11   D(9,2,5,4)           -178.3625         estimate D2E/DX2                !
 ! D12   D(9,2,5,6)             16.4735         estimate D2E/DX2                !
 ! D13   D(1,3,4,5)             -0.4513         estimate D2E/DX2                !
 ! D14   D(1,3,4,7)            164.7993         estimate D2E/DX2                !
 ! D15   D(44,3,4,5)          -179.7962         estimate D2E/DX2                !
 ! D16   D(44,3,4,7)           -14.5456         estimate D2E/DX2                !
 ! D17   D(1,3,44,36)          -36.0814         estimate D2E/DX2                !
 ! D18   D(1,3,44,45)          137.7887         estimate D2E/DX2                !
 ! D19   D(4,3,44,36)          143.197          estimate D2E/DX2                !
 ! D20   D(4,3,44,45)          -42.9329         estimate D2E/DX2                !
 ! D21   D(3,4,5,2)             -0.202          estimate D2E/DX2                !
 ! D22   D(3,4,5,6)            170.2768         estimate D2E/DX2                !
 ! D23   D(7,4,5,2)           -170.6805         estimate D2E/DX2                !
 ! D24   D(7,4,5,6)             -0.2017         estimate D2E/DX2                !
 ! D25   D(3,4,7,8)           -164.4272         estimate D2E/DX2                !
 ! D26   D(3,4,7,10)            16.4739         estimate D2E/DX2                !
 ! D27   D(5,4,7,8)              0.7366         estimate D2E/DX2                !
 ! D28   D(5,4,7,10)          -178.3623         estimate D2E/DX2                !
 ! D29   D(2,5,6,8)            164.7993         estimate D2E/DX2                !
 ! D30   D(2,5,6,23)           -14.5454         estimate D2E/DX2                !
 ! D31   D(4,5,6,8)             -0.4516         estimate D2E/DX2                !
 ! D32   D(4,5,6,23)          -179.7962         estimate D2E/DX2                !
 ! D33   D(5,6,8,7)              0.9817         estimate D2E/DX2                !
 ! D34   D(5,6,8,11)           167.249          estimate D2E/DX2                !
 ! D35   D(23,6,8,7)          -179.5832         estimate D2E/DX2                !
 ! D36   D(23,6,8,11)          -13.3159         estimate D2E/DX2                !
 ! D37   D(5,6,23,15)          -42.933          estimate D2E/DX2                !
 ! D38   D(5,6,23,24)          143.1963         estimate D2E/DX2                !
 ! D39   D(8,6,23,15)          137.7888         estimate D2E/DX2                !
 ! D40   D(8,6,23,24)          -36.0819         estimate D2E/DX2                !
 ! D41   D(4,7,8,6)             -1.0548         estimate D2E/DX2                !
 ! D42   D(4,7,8,11)          -167.8137         estimate D2E/DX2                !
 ! D43   D(10,7,8,6)           178.1664         estimate D2E/DX2                !
 ! D44   D(10,7,8,11)           11.4074         estimate D2E/DX2                !
 ! D45   D(18,13,14,15)         -0.2812         estimate D2E/DX2                !
 ! D46   D(18,13,14,25)        178.6479         estimate D2E/DX2                !
 ! D47   D(19,13,14,15)       -179.9838         estimate D2E/DX2                !
 ! D48   D(19,13,14,25)         -1.0548         estimate D2E/DX2                !
 ! D49   D(14,13,18,17)         -0.2125         estimate D2E/DX2                !
 ! D50   D(14,13,18,22)        179.7773         estimate D2E/DX2                !
 ! D51   D(19,13,18,17)        179.4898         estimate D2E/DX2                !
 ! D52   D(19,13,18,22)         -0.5204         estimate D2E/DX2                !
 ! D53   D(13,14,15,16)          0.7343         estimate D2E/DX2                !
 ! D54   D(13,14,15,23)        178.5281         estimate D2E/DX2                !
 ! D55   D(25,14,15,16)       -178.4443         estimate D2E/DX2                !
 ! D56   D(25,14,15,23)         -0.6505         estimate D2E/DX2                !
 ! D57   D(13,14,25,24)       -178.6675         estimate D2E/DX2                !
 ! D58   D(13,14,25,27)          2.778          estimate D2E/DX2                !
 ! D59   D(15,14,25,24)          0.3571         estimate D2E/DX2                !
 ! D60   D(15,14,25,27)       -178.1973         estimate D2E/DX2                !
 ! D61   D(14,15,16,17)         -0.6536         estimate D2E/DX2                !
 ! D62   D(14,15,16,20)       -179.0668         estimate D2E/DX2                !
 ! D63   D(23,15,16,17)       -177.9433         estimate D2E/DX2                !
 ! D64   D(23,15,16,20)          3.6434         estimate D2E/DX2                !
 ! D65   D(14,15,23,6)        -174.0575         estimate D2E/DX2                !
 ! D66   D(14,15,23,24)          0.7005         estimate D2E/DX2                !
 ! D67   D(16,15,23,6)           3.5171         estimate D2E/DX2                !
 ! D68   D(16,15,23,24)        178.2751         estimate D2E/DX2                !
 ! D69   D(15,16,17,18)          0.1447         estimate D2E/DX2                !
 ! D70   D(15,16,17,21)       -179.2745         estimate D2E/DX2                !
 ! D71   D(20,16,17,18)        178.5774         estimate D2E/DX2                !
 ! D72   D(20,16,17,21)         -0.8418         estimate D2E/DX2                !
 ! D73   D(16,17,18,13)          0.2865         estimate D2E/DX2                !
 ! D74   D(16,17,18,22)       -179.7033         estimate D2E/DX2                !
 ! D75   D(21,17,18,13)        179.7019         estimate D2E/DX2                !
 ! D76   D(21,17,18,22)         -0.2879         estimate D2E/DX2                !
 ! D77   D(6,23,24,25)         174.3104         estimate D2E/DX2                !
 ! D78   D(6,23,24,26)          -8.9412         estimate D2E/DX2                !
 ! D79   D(15,23,24,25)         -0.4733         estimate D2E/DX2                !
 ! D80   D(15,23,24,26)        176.2751         estimate D2E/DX2                !
 ! D81   D(23,24,25,14)          0.0711         estimate D2E/DX2                !
 ! D82   D(23,24,25,27)        178.8569         estimate D2E/DX2                !
 ! D83   D(26,24,25,14)       -176.9867         estimate D2E/DX2                !
 ! D84   D(26,24,25,27)          1.7992         estimate D2E/DX2                !
 ! D85   D(23,24,26,28)       -178.2658         estimate D2E/DX2                !
 ! D86   D(23,24,26,29)          0.4132         estimate D2E/DX2                !
 ! D87   D(25,24,26,28)         -1.8878         estimate D2E/DX2                !
 ! D88   D(25,24,26,29)        176.7912         estimate D2E/DX2                !
 ! D89   D(14,25,27,30)        178.0161         estimate D2E/DX2                !
 ! D90   D(14,25,27,31)         -1.469          estimate D2E/DX2                !
 ! D91   D(24,25,27,30)         -0.3966         estimate D2E/DX2                !
 ! D92   D(24,25,27,31)       -179.8818         estimate D2E/DX2                !
 ! D93   D(24,26,28,30)          0.6328         estimate D2E/DX2                !
 ! D94   D(24,26,28,32)       -179.9192         estimate D2E/DX2                !
 ! D95   D(29,26,28,30)       -178.0681         estimate D2E/DX2                !
 ! D96   D(29,26,28,32)          1.3799         estimate D2E/DX2                !
 ! D97   D(25,27,30,28)         -0.8285         estimate D2E/DX2                !
 ! D98   D(25,27,30,33)        179.9369         estimate D2E/DX2                !
 ! D99   D(31,27,30,28)        178.6561         estimate D2E/DX2                !
 ! D100  D(31,27,30,33)         -0.5785         estimate D2E/DX2                !
 ! D101  D(26,28,30,27)          0.7188         estimate D2E/DX2                !
 ! D102  D(26,28,30,33)        179.9552         estimate D2E/DX2                !
 ! D103  D(32,28,30,27)       -178.7256         estimate D2E/DX2                !
 ! D104  D(32,28,30,33)          0.5108         estimate D2E/DX2                !
 ! D105  D(39,34,35,36)         -0.3965         estimate D2E/DX2                !
 ! D106  D(39,34,35,46)        178.016          estimate D2E/DX2                !
 ! D107  D(40,34,35,36)       -179.8817         estimate D2E/DX2                !
 ! D108  D(40,34,35,46)         -1.4692         estimate D2E/DX2                !
 ! D109  D(35,34,39,38)         -0.8286         estimate D2E/DX2                !
 ! D110  D(35,34,39,43)        179.9369         estimate D2E/DX2                !
 ! D111  D(40,34,39,38)        178.656          estimate D2E/DX2                !
 ! D112  D(40,34,39,43)         -0.5785         estimate D2E/DX2                !
 ! D113  D(34,35,36,37)          1.7992         estimate D2E/DX2                !
 ! D114  D(34,35,36,44)        178.8568         estimate D2E/DX2                !
 ! D115  D(46,35,36,37)       -176.9864         estimate D2E/DX2                !
 ! D116  D(46,35,36,44)          0.0711         estimate D2E/DX2                !
 ! D117  D(34,35,46,45)       -178.1971         estimate D2E/DX2                !
 ! D118  D(34,35,46,48)          2.778          estimate D2E/DX2                !
 ! D119  D(36,35,46,45)          0.3572         estimate D2E/DX2                !
 ! D120  D(36,35,46,48)       -178.6676         estimate D2E/DX2                !
 ! D121  D(35,36,37,38)         -1.8879         estimate D2E/DX2                !
 ! D122  D(35,36,37,41)        176.7911         estimate D2E/DX2                !
 ! D123  D(44,36,37,38)       -178.2658         estimate D2E/DX2                !
 ! D124  D(44,36,37,41)          0.4133         estimate D2E/DX2                !
 ! D125  D(35,36,44,3)         174.3096         estimate D2E/DX2                !
 ! D126  D(35,36,44,45)         -0.4735         estimate D2E/DX2                !
 ! D127  D(37,36,44,3)          -8.942          estimate D2E/DX2                !
 ! D128  D(37,36,44,45)        176.2748         estimate D2E/DX2                !
 ! D129  D(36,37,38,39)          0.6328         estimate D2E/DX2                !
 ! D130  D(36,37,38,42)       -179.9192         estimate D2E/DX2                !
 ! D131  D(41,37,38,39)       -178.0681         estimate D2E/DX2                !
 ! D132  D(41,37,38,42)          1.3799         estimate D2E/DX2                !
 ! D133  D(37,38,39,34)          0.7189         estimate D2E/DX2                !
 ! D134  D(37,38,39,43)        179.9552         estimate D2E/DX2                !
 ! D135  D(42,38,39,34)       -178.7255         estimate D2E/DX2                !
 ! D136  D(42,38,39,43)          0.5108         estimate D2E/DX2                !
 ! D137  D(3,44,45,46)        -174.0568         estimate D2E/DX2                !
 ! D138  D(3,44,45,47)           3.5179         estimate D2E/DX2                !
 ! D139  D(36,44,45,46)          0.7007         estimate D2E/DX2                !
 ! D140  D(36,44,45,47)        178.2754         estimate D2E/DX2                !
 ! D141  D(44,45,46,35)         -0.6506         estimate D2E/DX2                !
 ! D142  D(44,45,46,48)        178.5281         estimate D2E/DX2                !
 ! D143  D(47,45,46,35)       -178.4445         estimate D2E/DX2                !
 ! D144  D(47,45,46,48)          0.7342         estimate D2E/DX2                !
 ! D145  D(44,45,47,49)       -177.9433         estimate D2E/DX2                !
 ! D146  D(44,45,47,50)          3.6434         estimate D2E/DX2                !
 ! D147  D(46,45,47,49)         -0.6534         estimate D2E/DX2                !
 ! D148  D(46,45,47,50)       -179.0667         estimate D2E/DX2                !
 ! D149  D(35,46,48,51)        178.6481         estimate D2E/DX2                !
 ! D150  D(35,46,48,52)         -1.0546         estimate D2E/DX2                !
 ! D151  D(45,46,48,51)         -0.2811         estimate D2E/DX2                !
 ! D152  D(45,46,48,52)       -179.9838         estimate D2E/DX2                !
 ! D153  D(45,47,49,51)          0.1446         estimate D2E/DX2                !
 ! D154  D(45,47,49,53)       -179.2745         estimate D2E/DX2                !
 ! D155  D(50,47,49,51)        178.5773         estimate D2E/DX2                !
 ! D156  D(50,47,49,53)         -0.8418         estimate D2E/DX2                !
 ! D157  D(46,48,51,49)         -0.2126         estimate D2E/DX2                !
 ! D158  D(46,48,51,54)        179.7773         estimate D2E/DX2                !
 ! D159  D(52,48,51,49)        179.4898         estimate D2E/DX2                !
 ! D160  D(52,48,51,54)         -0.5203         estimate D2E/DX2                !
 ! D161  D(47,49,51,48)          0.2866         estimate D2E/DX2                !
 ! D162  D(47,49,51,54)       -179.7033         estimate D2E/DX2                !
 ! D163  D(53,49,51,48)        179.7019         estimate D2E/DX2                !
 ! D164  D(53,49,51,54)         -0.288          estimate D2E/DX2                !
 --------------------------------------------------------------------------------
 Trust Radius=3.00D-01 FncErr=1.00D-07 GrdErr=1.00D-06 EigMax=2.50D+02 EigMin=1.00D-04
 Number of steps in this run=    324 maximum allowed number of steps=    324.
 GradGradGradGradGradGradGradGradGradGradGradGradGradGradGradGradGradGrad

 Stoichiometry    C30H18N4O2(1+,2)
 Framework group  C1[X(C30H18N4O2)]
 Deg. of freedom   156
 Full point group                 C1      NOp   1
 Largest Abelian subgroup         C1      NOp   1
 Largest concise Abelian subgroup C1      NOp   1
                         Standard orientation:                         
 ---------------------------------------------------------------------
 Center     Atomic      Atomic             Coordinates (Angstroms)
 Number     Number       Type             X           Y           Z
 ---------------------------------------------------------------------
      1          7           0        1.214708   -1.733752    0.059538
      2          6           0       -0.208860   -1.808183   -0.019058
      3          6           0        1.686543   -0.429531   -0.019690
      4          6           0        0.597077    0.409569   -0.130964
      5          6           0       -0.597076   -0.409572   -0.130964
      6          6           0       -1.686542    0.429529   -0.019695
      7          6           0        0.208861    1.808180   -0.019058
      8          7           0       -1.214707    1.733749    0.059537
      9          8           0       -0.830830   -2.861488   -0.002236
     10          8           0        0.830831    2.861485   -0.002238
     11          1           0       -1.791051    2.558624   -0.036988
     12          1           0        1.791051   -2.558627   -0.036991
     13          6           0       -6.049342   -1.397373   -1.218045
     14          6           0       -5.129714   -0.610617   -0.515315
     15          6           0       -3.747587   -0.746646   -0.779090
     16          6           0       -3.263401   -1.636978   -1.736608
     17          6           0       -4.198929   -2.410015   -2.425911
     18          6           0       -5.576066   -2.297373   -2.171225
     19          1           0       -7.114243   -1.303944   -1.026578
     20          1           0       -2.205057   -1.750816   -1.927048
     21          1           0       -3.847837   -3.119885   -3.168462
     22          1           0       -6.275963   -2.917688   -2.722545
     23          7           0       -3.041143    0.177021    0.031432
     24          6           0       -3.982253    0.883729    0.818299
     25          6           0       -5.278774    0.416722    0.498772
     26          6           0       -3.771634    1.841136    1.814549
     27          6           0       -6.388416    0.947441    1.165766
     28          6           0       -4.894778    2.357905    2.464706
     29          1           0       -2.776858    2.164668    2.098217
     30          6           0       -6.190755    1.923822    2.141473
     31          1           0       -7.389258    0.596855    0.931892
     32          1           0       -4.756360    3.103872    3.241317
     33          1           0       -7.043486    2.344243    2.665408
     34          6           0        6.388423   -0.947448    1.165749
     35          6           0        5.278777   -0.416726    0.498763
     36          6           0        3.982257   -0.883731    0.818299
     37          6           0        3.771644   -1.841138    1.814551
     38          6           0        4.894792   -2.357910    2.464698
     39          6           0        6.190768   -1.923830    2.141455
     40          1           0        7.389264   -0.596863    0.931868
     41          1           0        2.776869   -2.164668    2.098227
     42          1           0        4.756378   -3.103877    3.241310
     43          1           0        7.043501   -2.344254    2.665383
     44          7           0        3.041143   -0.177019    0.031440
     45          6           0        3.747582    0.746650   -0.779082
     46          6           0        5.129711    0.610616   -0.515319
     47          6           0        3.263390    1.636990   -1.736590
     48          6           0        6.049335    1.397374   -1.218053
     49          6           0        4.198914    2.410028   -2.425897
     50          1           0        2.205044    1.750833   -1.927019
     51          6           0        5.576053    2.297381   -2.171223
     52          1           0        7.114238    1.303942   -1.026595
     53          1           0        3.847817    3.119903   -3.168440
     54          1           0        6.275946    2.917697   -2.722546
 ---------------------------------------------------------------------
 Rotational constants (GHZ):           0.2354867           0.0567827           0.0542385
 Standard basis: 6-31+G(d,p) (6D, 7F)
 There are   774 symmetry adapted cartesian basis functions of A   symmetry.
 There are   774 symmetry adapted basis functions of A   symmetry.
   774 basis functions,  1278 primitive gaussians,   774 cartesian basis functions
   121 alpha electrons      120 beta electrons
       nuclear repulsion energy      3478.8857126255 Hartrees.
 NAtoms=   54 NActive=   54 NUniq=   54 SFac= 1.00D+00 NAtFMM=   60 NAOKFM=F Big=F
 Integral buffers will be    131072 words long.
 Raffenetti 2 integral format.
 Two-electron integral symmetry is turned on.
 One-electron integrals computed using PRISM.
 NBasis=   774 RedAO= T EigKep=  1.35D-06  NBF=   774
 NBsUse=   762 1.00D-06 EigRej=  8.37D-07 NBFU=   762
 ExpMin= 4.38D-02 ExpMax= 5.48D+03 ExpMxC= 8.25D+02 IAcc=3 IRadAn=         5 AccDes= 0.00D+00
 Harris functional with IExCor=  402 and IRadAn=       5 diagonalized for initial guess.
 HarFok:  IExCor=  402 AccDes= 0.00D+00 IRadAn=         5 IDoV= 1 UseB2=F ITyADJ=14
 ICtDFT=  3500011 ScaDFX=  1.000000  1.000000  1.000000  1.000000
 FoFCou: FMM=F IPFlag=           0 FMFlag=      100000 FMFlg1=           0
         NFxFlg=           0 DoJE=T BraDBF=F KetDBF=T FulRan=T
         wScrn=  0.000000 ICntrl=       500 IOpCl=  0 I1Cent=   200000004 NGrid=           0
         NMat0=    1 NMatS0=      1 NMatT0=    0 NMatD0=    1 NMtDS0=    0 NMtDT0=    0
 Petite list used in FoFCou.
 Initial guess <Sx>= 0.0000 <Sy>= 0.0000 <Sz>= 0.5000 <S**2>= 0.7500 S= 0.5000
 Requested convergence on RMS density matrix=1.00D-08 within 128 cycles.
 Requested convergence on MAX density matrix=1.00D-06.
 Requested convergence on             energy=1.00D-06.
 No special actions if energy rises.
 EnCoef did     3 forward-backward iterations
 Restarting incremental Fock formation.
 SCF Done:  E(UB3LYP) =  -1523.36722843     A.U. after   28 cycles
            NFock= 28  Conv=0.88D-08     -V/T= 2.0095
 <Sx>= 0.0000 <Sy>= 0.0000 <Sz>= 0.5000 <S**2>= 0.7602 S= 0.5051
 <L.S>=  0.00000000000    
 Annihilation of the first spin contaminant:
 S**2 before annihilation     0.7602,   after     0.7501

 **********************************************************************

            Population analysis using the SCF Density.

 **********************************************************************

 Orbital symmetries:
 Alpha Orbitals:
       Occupied  (A) (A) (A) (A) (A) (A) (A) (A) (A) (A) (A) (A)
                 (A) (A) (A) (A) (A) (A) (A) (A) (A) (A) (A) (A)
                 (A) (A) (A) (A) (A) (A) (A) (A) (A) (A) (A) (A)
                 (A) (A) (A) (A) (A) (A) (A) (A) (A) (A) (A) (A)
                 (A) (A) (A) (A) (A) (A) (A) (A) (A) (A) (A) (A)
                 (A) (A) (A) (A) (A) (A) (A) (A) (A) (A) (A) (A)
                 (A) (A) (A) (A) (A) (A) (A) (A) (A) (A) (A) (A)
                 (A) (A) (A) (A) (A) (A) (A) (A) (A) (A) (A) (A)
                 (A) (A) (A) (A) (A) (A) (A) (A) (A) (A) (A) (A)
                 (A) (A) (A) (A) (A) (A) (A) (A) (A) (A) (A) (A)
                 (A)
       Virtual   (A) (A) (A) (A) (A) (A) (A) (A) (A) (A) (A) (A)
                 (A) (A) (A) (A) (A) (A) (A) (A) (A) (A) (A) (A)
                 (A) (A) (A) (A) (A) (A) (A) (A) (A) (A) (A) (A)
                 (A) (A) (A) (A) (A) (A) (A) (A) (A) (A) (A) (A)
                 (A) (A) (A) (A) (A) (A) (A) (A) (A) (A) (A) (A)
                 (A) (A) (A) (A) (A) (A) (A) (A) (A) (A) (A) (A)
                 (A) (A) (A) (A) (A) (A) (A) (A) (A) (A) (A) (A)
                 (A) (A) (A) (A) (A) (A) (A) (A) (A) (A) (A) (A)
                 (A) (A) (A) (A) (A) (A) (A) (A) (A) (A) (A) (A)
                 (A) (A) (A) (A) (A) (A) (A) (A) (A) (A) (A) (A)
                 (A) (A) (A) (A) (A) (A) (A) (A) (A) (A) (A) (A)
                 (A) (A) (A) (A) (A) (A) (A) (A) (A) (A) (A) (A)
                 (A) (A) (A) (A) (A) (A) (A) (A) (A) (A) (A) (A)
                 (A) (A) (A) (A) (A) (A) (A) (A) (A) (A) (A) (A)
                 (A) (A) (A) (A) (A) (A) (A) (A) (A) (A) (A) (A)
                 (A) (A) (A) (A) (A) (A) (A) (A) (A) (A) (A) (A)
                 (A) (A) (A) (A) (A) (A) (A) (A) (A) (A) (A) (A)
                 (A) (A) (A) (A) (A) (A) (A) (A) (A) (A) (A) (A)
                 (A) (A) (A) (A) (A) (A) (A) (A) (A) (A) (A) (A)
                 (A) (A) (A) (A) (A) (A) (A) (A) (A) (A) (A) (A)
                 (A) (A) (A) (A) (A) (A) (A) (A) (A) (A) (A) (A)
                 (A) (A) (A) (A) (A) (A) (A) (A) (A) (A) (A) (A)
                 (A) (A) (A) (A) (A) (A) (A) (A) (A) (A) (A) (A)
                 (A) (A) (A) (A) (A) (A) (A) (A) (A) (A) (A) (A)
                 (A) (A) (A) (A) (A) (A) (A) (A) (A) (A) (A) (A)
                 (A) (A) (A) (A) (A) (A) (A) (A) (A) (A) (A) (A)
                 (A) (A) (A) (A) (A) (A) (A) (A) (A) (A) (A) (A)
                 (A) (A) (A) (A) (A) (A) (A) (A) (A) (A) (A) (A)
                 (A) (A) (A) (A) (A) (A) (A) (A) (A) (A) (A) (A)
                 (A) (A) (A) (A) (A) (A) (A) (A) (A) (A) (A) (A)
                 (A) (A) (A) (A) (A) (A) (A) (A) (A) (A) (A) (A)
                 (A) (A) (A) (A) (A) (A) (A) (A) (A) (A) (A) (A)
                 (A) (A) (A) (A) (A) (A) (A) (A) (A) (A) (A) (A)
                 (A) (A) (A) (A) (A) (A) (A) (A) (A) (A) (A) (A)
                 (A) (A) (A) (A) (A) (A) (A) (A) (A) (A) (A) (A)
                 (A) (A) (A) (A) (A) (A) (A) (A) (A) (A) (A) (A)
                 (A) (A) (A) (A) (A) (A) (A) (A) (A) (A) (A) (A)
                 (A) (A) (A) (A) (A) (A) (A) (A) (A) (A) (A) (A)
                 (A) (A) (A) (A) (A) (A) (A) (A) (A) (A) (A) (A)
                 (A) (A) (A) (A) (A) (A) (A) (A) (A) (A) (A) (A)
                 (A) (A) (A) (A) (A) (A) (A) (A) (A) (A) (A) (A)
                 (A) (A) (A) (A) (A) (A) (A) (A) (A) (A) (A) (A)
                 (A) (A) (A) (A) (A) (A) (A) (A) (A) (A) (A) (A)
                 (A) (A) (A) (A) (A) (A) (A) (A) (A) (A) (A) (A)
                 (A) (A) (A) (A) (A) (A) (A) (A) (A) (A) (A) (A)
                 (A) (A) (A) (A) (A) (A) (A) (A) (A) (A) (A) (A)
                 (A) (A) (A) (A) (A) (A) (A) (A) (A) (A) (A) (A)
                 (A) (A) (A) (A) (A) (A) (A) (A) (A) (A) (A) (A)
                 (A) (A) (A) (A) (A) (A) (A) (A) (A) (A) (A) (A)
                 (A) (A) (A) (A) (A) (A) (A) (A) (A) (A) (A) (A)
                 (A) (A) (A) (A) (A) (A) (A) (A) (A) (A) (A) (A)
                 (A) (A) (A) (A) (A) (A) (A) (A) (A) (A) (A) (A)
                 (A) (A) (A) (A) (A) (A) (A) (A) (A) (A) (A) (A)
                 (A) (A) (A) (A) (A)
 Beta  Orbitals:
       Occupied  (A) (A) (A) (A) (A) (A) (A) (A) (A) (A) (A) (A)
                 (A) (A) (A) (A) (A) (A) (A) (A) (A) (A) (A) (A)
                 (A) (A) (A) (A) (A) (A) (A) (A) (A) (A) (A) (A)
                 (A) (A) (A) (A) (A) (A) (A) (A) (A) (A) (A) (A)
                 (A) (A) (A) (A) (A) (A) (A) (A) (A) (A) (A) (A)
                 (A) (A) (A) (A) (A) (A) (A) (A) (A) (A) (A) (A)
                 (A) (A) (A) (A) (A) (A) (A) (A) (A) (A) (A) (A)
                 (A) (A) (A) (A) (A) (A) (A) (A) (A) (A) (A) (A)
                 (A) (A) (A) (A) (A) (A) (A) (A) (A) (A) (A) (A)
                 (A) (A) (A) (A) (A) (A) (A) (A) (A) (A) (A) (A)
       Virtual   (A) (A) (A) (A) (A) (A) (A) (A) (A) (A) (A) (A)
                 (A) (A) (A) (A) (A) (A) (A) (A) (A) (A) (A) (A)
                 (A) (A) (A) (A) (A) (A) (A) (A) (A) (A) (A) (A)
                 (A) (A) (A) (A) (A) (A) (A) (A) (A) (A) (A) (A)
                 (A) (A) (A) (A) (A) (A) (A) (A) (A) (A) (A) (A)
                 (A) (A) (A) (A) (A) (A) (A) (A) (A) (A) (A) (A)
                 (A) (A) (A) (A) (A) (A) (A) (A) (A) (A) (A) (A)
                 (A) (A) (A) (A) (A) (A) (A) (A) (A) (A) (A) (A)
                 (A) (A) (A) (A) (A) (A) (A) (A) (A) (A) (A) (A)
                 (A) (A) (A) (A) (A) (A) (A) (A) (A) (A) (A) (A)
                 (A) (A) (A) (A) (A) (A) (A) (A) (A) (A) (A) (A)
                 (A) (A) (A) (A) (A) (A) (A) (A) (A) (A) (A) (A)
                 (A) (A) (A) (A) (A) (A) (A) (A) (A) (A) (A) (A)
                 (A) (A) (A) (A) (A) (A) (A) (A) (A) (A) (A) (A)
                 (A) (A) (A) (A) (A) (A) (A) (A) (A) (A) (A) (A)
                 (A) (A) (A) (A) (A) (A) (A) (A) (A) (A) (A) (A)
                 (A) (A) (A) (A) (A) (A) (A) (A) (A) (A) (A) (A)
                 (A) (A) (A) (A) (A) (A) (A) (A) (A) (A) (A) (A)
                 (A) (A) (A) (A) (A) (A) (A) (A) (A) (A) (A) (A)
                 (A) (A) (A) (A) (A) (A) (A) (A) (A) (A) (A) (A)
                 (A) (A) (A) (A) (A) (A) (A) (A) (A) (A) (A) (A)
                 (A) (A) (A) (A) (A) (A) (A) (A) (A) (A) (A) (A)
                 (A) (A) (A) (A) (A) (A) (A) (A) (A) (A) (A) (A)
                 (A) (A) (A) (A) (A) (A) (A) (A) (A) (A) (A) (A)
                 (A) (A) (A) (A) (A) (A) (A) (A) (A) (A) (A) (A)
                 (A) (A) (A) (A) (A) (A) (A) (A) (A) (A) (A) (A)
                 (A) (A) (A) (A) (A) (A) (A) (A) (A) (A) (A) (A)
                 (A) (A) (A) (A) (A) (A) (A) (A) (A) (A) (A) (A)
                 (A) (A) (A) (A) (A) (A) (A) (A) (A) (A) (A) (A)
                 (A) (A) (A) (A) (A) (A) (A) (A) (A) (A) (A) (A)
                 (A) (A) (A) (A) (A) (A) (A) (A) (A) (A) (A) (A)
                 (A) (A) (A) (A) (A) (A) (A) (A) (A) (A) (A) (A)
                 (A) (A) (A) (A) (A) (A) (A) (A) (A) (A) (A) (A)
                 (A) (A) (A) (A) (A) (A) (A) (A) (A) (A) (A) (A)
                 (A) (A) (A) (A) (A) (A) (A) (A) (A) (A) (A) (A)
                 (A) (A) (A) (A) (A) (A) (A) (A) (A) (A) (A) (A)
                 (A) (A) (A) (A) (A) (A) (A) (A) (A) (A) (A) (A)
                 (A) (A) (A) (A) (A) (A) (A) (A) (A) (A) (A) (A)
                 (A) (A) (A) (A) (A) (A) (A) (A) (A) (A) (A) (A)
                 (A) (A) (A) (A) (A) (A) (A) (A) (A) (A) (A) (A)
                 (A) (A) (A) (A) (A) (A) (A) (A) (A) (A) (A) (A)
                 (A) (A) (A) (A) (A) (A) (A) (A) (A) (A) (A) (A)
                 (A) (A) (A) (A) (A) (A) (A) (A) (A) (A) (A) (A)
                 (A) (A) (A) (A) (A) (A) (A) (A) (A) (A) (A) (A)
                 (A) (A) (A) (A) (A) (A) (A) (A) (A) (A) (A) (A)
                 (A) (A) (A) (A) (A) (A) (A) (A) (A) (A) (A) (A)
                 (A) (A) (A) (A) (A) (A) (A) (A) (A) (A) (A) (A)
                 (A) (A) (A) (A) (A) (A) (A) (A) (A) (A) (A) (A)
                 (A) (A) (A) (A) (A) (A) (A) (A) (A) (A) (A) (A)
                 (A) (A) (A) (A) (A) (A) (A) (A) (A) (A) (A) (A)
                 (A) (A) (A) (A) (A) (A) (A) (A) (A) (A) (A) (A)
                 (A) (A) (A) (A) (A) (A) (A) (A) (A) (A) (A) (A)
                 (A) (A) (A) (A) (A) (A) (A) (A) (A) (A) (A) (A)
                 (A) (A) (A) (A) (A) (A)
 The electronic state is 2-A.
 Alpha  occ. eigenvalues --  -19.27555 -19.27555 -14.55947 -14.55947 -14.52815
 Alpha  occ. eigenvalues --  -14.52815 -10.44802 -10.44801 -10.44483 -10.44483
 Alpha  occ. eigenvalues --  -10.36165 -10.36165 -10.35791 -10.35791 -10.35572
 Alpha  occ. eigenvalues --  -10.35533 -10.32246 -10.32246 -10.32238 -10.32238
 Alpha  occ. eigenvalues --  -10.31954 -10.31954 -10.31597 -10.31597 -10.31241
 Alpha  occ. eigenvalues --  -10.31241 -10.31029 -10.31029 -10.30937 -10.30937
 Alpha  occ. eigenvalues --  -10.30900 -10.30899 -10.30561 -10.30561 -10.30494
 Alpha  occ. eigenvalues --  -10.30494  -1.19459  -1.18645  -1.15777  -1.15695
 Alpha  occ. eigenvalues --   -1.10693  -1.09336  -0.98506  -0.98365  -0.97299
 Alpha  occ. eigenvalues --   -0.97134  -0.96105  -0.91981  -0.91337  -0.88775
 Alpha  occ. eigenvalues --   -0.87711  -0.87704  -0.87376  -0.84640  -0.84059
 Alpha  occ. eigenvalues --   -0.84052  -0.82360  -0.81689  -0.77589  -0.76183
 Alpha  occ. eigenvalues --   -0.74852  -0.73890  -0.73487  -0.72855  -0.71220
 Alpha  occ. eigenvalues --   -0.70013  -0.69751  -0.68730  -0.67726  -0.67151
 Alpha  occ. eigenvalues --   -0.64903  -0.64077  -0.63534  -0.63125  -0.62756
 Alpha  occ. eigenvalues --   -0.61312  -0.60848  -0.59826  -0.58927  -0.58525
 Alpha  occ. eigenvalues --   -0.58042  -0.57689  -0.57545  -0.56829  -0.56764
 Alpha  occ. eigenvalues --   -0.56080  -0.55780  -0.55313  -0.55267  -0.55108
 Alpha  occ. eigenvalues --   -0.54726  -0.54719  -0.53886  -0.53481  -0.53229
 Alpha  occ. eigenvalues --   -0.50067  -0.49073  -0.48533  -0.48511  -0.48267
 Alpha  occ. eigenvalues --   -0.48227  -0.47742  -0.47674  -0.46294  -0.46222
 Alpha  occ. eigenvalues --   -0.46036  -0.45956  -0.45513  -0.45131  -0.41714
 Alpha  occ. eigenvalues --   -0.41639  -0.40641  -0.40319  -0.39901  -0.37744
 Alpha  occ. eigenvalues --   -0.37733  -0.36588  -0.34981  -0.33760  -0.33757
 Alpha  occ. eigenvalues --   -0.33152
 Alpha virt. eigenvalues --   -0.22035  -0.15530  -0.15381  -0.15291  -0.12339
 Alpha virt. eigenvalues --   -0.12269  -0.10959  -0.10738  -0.10651  -0.09002
 Alpha virt. eigenvalues --   -0.08993  -0.08769  -0.07704  -0.07546  -0.07243
 Alpha virt. eigenvalues --   -0.07046  -0.07034  -0.06046  -0.06036  -0.05706
 Alpha virt. eigenvalues --   -0.05619  -0.05135  -0.04351  -0.04311  -0.04114
 Alpha virt. eigenvalues --   -0.03724  -0.03516  -0.03247  -0.02906  -0.02788
 Alpha virt. eigenvalues --   -0.02467  -0.01918  -0.01830  -0.01570  -0.01200
 Alpha virt. eigenvalues --   -0.01133  -0.00770  -0.00501  -0.00268   0.00244
 Alpha virt. eigenvalues --    0.00406   0.00609   0.00701   0.01236   0.01244
 Alpha virt. eigenvalues --    0.01634   0.02033   0.02215   0.02554   0.02999
 Alpha virt. eigenvalues --    0.03038   0.03498   0.03529   0.03580   0.03987
 Alpha virt. eigenvalues --    0.03993   0.04333   0.04509   0.04847   0.05062
 Alpha virt. eigenvalues --    0.05182   0.05282   0.05551   0.05641   0.05789
 Alpha virt. eigenvalues --    0.05965   0.06057   0.06258   0.06677   0.06827
 Alpha virt. eigenvalues --    0.07096   0.07565   0.07597   0.07724   0.07959
 Alpha virt. eigenvalues --    0.07971   0.08302   0.08452   0.08863   0.08960
 Alpha virt. eigenvalues --    0.09322   0.09355   0.09651   0.09655   0.10220
 Alpha virt. eigenvalues --    0.10383   0.10457   0.10491   0.10603   0.10841
 Alpha virt. eigenvalues --    0.11222   0.11485   0.11567   0.11718   0.11841
 Alpha virt. eigenvalues --    0.11996   0.12233   0.12388   0.12819   0.12928
 Alpha virt. eigenvalues --    0.13004   0.13102   0.13134   0.13321   0.13720
 Alpha virt. eigenvalues --    0.13836   0.14219   0.14609   0.14971   0.14984
 Alpha virt. eigenvalues --    0.15220   0.15398   0.15562   0.15703   0.15795
 Alpha virt. eigenvalues --    0.15907   0.15933   0.16230   0.16456   0.16570
 Alpha virt. eigenvalues --    0.16703   0.16983   0.17427   0.17822   0.17863
 Alpha virt. eigenvalues --    0.18139   0.18315   0.18477   0.18678   0.19052
 Alpha virt. eigenvalues --    0.19128   0.19643   0.19828   0.20010   0.20151
 Alpha virt. eigenvalues --    0.20165   0.20394   0.20483   0.20654   0.20882
 Alpha virt. eigenvalues --    0.21193   0.21234   0.21769   0.21918   0.22487
 Alpha virt. eigenvalues --    0.22594   0.22879   0.22908   0.23111   0.23300
 Alpha virt. eigenvalues --    0.23368   0.23816   0.23879   0.24164   0.24249
 Alpha virt. eigenvalues --    0.24589   0.24808   0.25010   0.25236   0.25630
 Alpha virt. eigenvalues --    0.25640   0.25724   0.26232   0.26440   0.27146
 Alpha virt. eigenvalues --    0.27517   0.27725   0.28318   0.28362   0.28710
 Alpha virt. eigenvalues --    0.29422   0.29434   0.29981   0.30185   0.30301
 Alpha virt. eigenvalues --    0.30684   0.30890   0.32212   0.32771   0.32834
 Alpha virt. eigenvalues --    0.33394   0.33738   0.34460   0.34467   0.34915
 Alpha virt. eigenvalues --    0.35185   0.35486   0.35979   0.36435   0.36827
 Alpha virt. eigenvalues --    0.37200   0.37626   0.37841   0.38086   0.39569
 Alpha virt. eigenvalues --    0.40676   0.40942   0.41793   0.44119   0.45685
 Alpha virt. eigenvalues --    0.47900   0.48784   0.50264   0.50502   0.50787
 Alpha virt. eigenvalues --    0.51210   0.52410   0.53912   0.54431   0.57127
 Alpha virt. eigenvalues --    0.57428   0.57775   0.58141   0.58592   0.58622
 Alpha virt. eigenvalues --    0.59292   0.59566   0.60041   0.60800   0.61024
 Alpha virt. eigenvalues --    0.61909   0.62208   0.63078   0.63129   0.63339
 Alpha virt. eigenvalues --    0.63484   0.63887   0.63887   0.64365   0.64394
 Alpha virt. eigenvalues --    0.64773   0.64949   0.65456   0.65493   0.65726
 Alpha virt. eigenvalues --    0.66027   0.66363   0.66686   0.66818   0.66922
 Alpha virt. eigenvalues --    0.67965   0.68561   0.69274   0.69565   0.69610
 Alpha virt. eigenvalues --    0.70240   0.70349   0.70898   0.71346   0.71953
 Alpha virt. eigenvalues --    0.72348   0.72718   0.73277   0.73502   0.73789
 Alpha virt. eigenvalues --    0.74590   0.75042   0.75426   0.76436   0.76483
 Alpha virt. eigenvalues --    0.76875   0.77680   0.78370   0.78755   0.79212
 Alpha virt. eigenvalues --    0.79700   0.79747   0.80629   0.81932   0.82639
 Alpha virt. eigenvalues --    0.82689   0.82932   0.83420   0.84223   0.84588
 Alpha virt. eigenvalues --    0.84818   0.85440   0.85589   0.86532   0.86855
 Alpha virt. eigenvalues --    0.87031   0.87748   0.87987   0.88470   0.89077
 Alpha virt. eigenvalues --    0.90141   0.90416   0.91543   0.92124   0.92652
 Alpha virt. eigenvalues --    0.93245   0.93828   0.93959   0.94324   0.94970
 Alpha virt. eigenvalues --    0.95161   0.96454   0.96714   0.98657   0.99557
 Alpha virt. eigenvalues --    1.00942   1.01017   1.01455   1.02502   1.02874
 Alpha virt. eigenvalues --    1.04135   1.04276   1.04902   1.05078   1.05414
 Alpha virt. eigenvalues --    1.05619   1.06029   1.07427   1.07810   1.07896
 Alpha virt. eigenvalues --    1.09302   1.09496   1.09979   1.11264   1.11662
 Alpha virt. eigenvalues --    1.12785   1.13036   1.13349   1.14072   1.15302
 Alpha virt. eigenvalues --    1.15412   1.15503   1.15677   1.15881   1.15956
 Alpha virt. eigenvalues --    1.16701   1.17012   1.18344   1.18428   1.18493
 Alpha virt. eigenvalues --    1.18975   1.20124   1.20157   1.20370   1.20918
 Alpha virt. eigenvalues --    1.21667   1.22109   1.22415   1.24070   1.24461
 Alpha virt. eigenvalues --    1.24729   1.25312   1.25626   1.25814   1.25816
 Alpha virt. eigenvalues --    1.26034   1.26052   1.27096   1.27264   1.28360
 Alpha virt. eigenvalues --    1.28886   1.29185   1.29188   1.29795   1.29955
 Alpha virt. eigenvalues --    1.30024   1.30309   1.30539   1.30704   1.31521
 Alpha virt. eigenvalues --    1.31746   1.32200   1.32347   1.32612   1.32686
 Alpha virt. eigenvalues --    1.33551   1.34644   1.35641   1.36676   1.38642
 Alpha virt. eigenvalues --    1.39014   1.41476   1.43442   1.43770   1.45187
 Alpha virt. eigenvalues --    1.45986   1.47194   1.48305   1.48718   1.50164
 Alpha virt. eigenvalues --    1.50993   1.53310   1.53632   1.53957   1.57917
 Alpha virt. eigenvalues --    1.58168   1.61732   1.61895   1.63742   1.63743
 Alpha virt. eigenvalues --    1.65208   1.65252   1.65564   1.66578   1.67058
 Alpha virt. eigenvalues --    1.69112   1.69338   1.69383   1.69728   1.70366
 Alpha virt. eigenvalues --    1.71524   1.71775   1.71853   1.72600   1.73945
 Alpha virt. eigenvalues --    1.74087   1.75562   1.75770   1.76598   1.77322
 Alpha virt. eigenvalues --    1.77839   1.79716   1.79784   1.80851   1.81224
 Alpha virt. eigenvalues --    1.81348   1.81640   1.82939   1.82964   1.83285
 Alpha virt. eigenvalues --    1.83441   1.83470   1.84211   1.84698   1.85445
 Alpha virt. eigenvalues --    1.85790   1.86667   1.86985   1.87695   1.89103
 Alpha virt. eigenvalues --    1.89142   1.89409   1.89596   1.89932   1.91100
 Alpha virt. eigenvalues --    1.91851   1.91916   1.92230   1.93362   1.94296
 Alpha virt. eigenvalues --    1.94374   1.94596   1.95209   1.95953   1.97215
 Alpha virt. eigenvalues --    1.97467   1.99397   1.99529   2.00132   2.00613
 Alpha virt. eigenvalues --    2.03032   2.03471   2.04727   2.04911   2.05423
 Alpha virt. eigenvalues --    2.05544   2.05729   2.07815   2.10654   2.11268
 Alpha virt. eigenvalues --    2.12810   2.14473   2.14534   2.14941   2.15678
 Alpha virt. eigenvalues --    2.16678   2.17414   2.17621   2.17697   2.18660
 Alpha virt. eigenvalues --    2.19554   2.20969   2.23430   2.23459   2.24314
 Alpha virt. eigenvalues --    2.24814   2.24828   2.25788   2.26185   2.26702
 Alpha virt. eigenvalues --    2.27097   2.27781   2.28580   2.28827   2.29193
 Alpha virt. eigenvalues --    2.29348   2.29647   2.30326   2.30424   2.30946
 Alpha virt. eigenvalues --    2.31175   2.32303   2.34284   2.35747   2.36277
 Alpha virt. eigenvalues --    2.36487   2.36594   2.37692   2.38165   2.38758
 Alpha virt. eigenvalues --    2.40472   2.40936   2.41045   2.41123   2.41608
 Alpha virt. eigenvalues --    2.42451   2.43092   2.43203   2.43516   2.44498
 Alpha virt. eigenvalues --    2.44829   2.45499   2.45976   2.46399   2.47764
 Alpha virt. eigenvalues --    2.47912   2.48031   2.48298   2.49201   2.49273
 Alpha virt. eigenvalues --    2.49869   2.50945   2.53117   2.53170   2.53840
 Alpha virt. eigenvalues --    2.54955   2.55115   2.55440   2.56577   2.56969
 Alpha virt. eigenvalues --    2.56996   2.58190   2.58487   2.61068   2.61238
 Alpha virt. eigenvalues --    2.62033   2.62703   2.64517   2.65091   2.65331
 Alpha virt. eigenvalues --    2.66245   2.66967   2.67018   2.68724   2.69645
 Alpha virt. eigenvalues --    2.71717   2.73206   2.74763   2.74977   2.77722
 Alpha virt. eigenvalues --    2.79270   2.79423   2.80186   2.80873   2.81002
 Alpha virt. eigenvalues --    2.81856   2.83220   2.84149   2.87633   2.88481
 Alpha virt. eigenvalues --    2.91737   2.91780   2.93635   2.95520   2.98741
 Alpha virt. eigenvalues --    3.01149   3.03250   3.04154   3.08023   3.08660
 Alpha virt. eigenvalues --    3.10778   3.11691   3.13350   3.14668   3.15678
 Alpha virt. eigenvalues --    3.15892   3.17210   3.17321   3.18011   3.18066
 Alpha virt. eigenvalues --    3.19096   3.22291   3.22708   3.25482   3.27131
 Alpha virt. eigenvalues --    3.27945   3.28588   3.28622   3.32619   3.36228
 Alpha virt. eigenvalues --    3.39177   3.39785   3.41951   3.43116   3.44070
 Alpha virt. eigenvalues --    3.46320   3.71501   3.71602   3.79153   3.79364
 Alpha virt. eigenvalues --    4.10081   4.18642   4.18977   4.21786   4.21890
 Alpha virt. eigenvalues --    4.23019   4.23842   4.26536   4.26591   4.27221
 Alpha virt. eigenvalues --    4.28714   4.29776   4.31193   4.34264   4.34995
 Alpha virt. eigenvalues --    4.36768   4.37049   4.37277   4.38077   4.40428
 Alpha virt. eigenvalues --    4.40512   4.47907   4.47933   4.48261   4.48645
 Alpha virt. eigenvalues --    4.49251   4.51371   4.55233   4.61665   4.65273
 Alpha virt. eigenvalues --    4.74530   4.75836   4.82637   4.82964   4.88008
 Alpha virt. eigenvalues --    4.97377
  Beta  occ. eigenvalues --  -19.27346 -19.27346 -14.55643 -14.55643 -14.52827
  Beta  occ. eigenvalues --  -14.52827 -10.44789 -10.44788 -10.44507 -10.44507
  Beta  occ. eigenvalues --  -10.36201 -10.36201 -10.35824 -10.35824 -10.35377
  Beta  occ. eigenvalues --  -10.35336 -10.32201 -10.32201 -10.32175 -10.32175
  Beta  occ. eigenvalues --  -10.31918 -10.31918 -10.31520 -10.31520 -10.31249
  Beta  occ. eigenvalues --  -10.31249 -10.31058 -10.31058 -10.30940 -10.30940
  Beta  occ. eigenvalues --  -10.30826 -10.30826 -10.30549 -10.30549 -10.30458
  Beta  occ. eigenvalues --  -10.30458  -1.19190  -1.18365  -1.15377  -1.15290
  Beta  occ. eigenvalues --   -1.10407  -1.09161  -0.98349  -0.98217  -0.97175
  Beta  occ. eigenvalues --   -0.97042  -0.95805  -0.91802  -0.91229  -0.88571
  Beta  occ. eigenvalues --   -0.87586  -0.87569  -0.87266  -0.84285  -0.84034
  Beta  occ. eigenvalues --   -0.84003  -0.82254  -0.81456  -0.77396  -0.76097
  Beta  occ. eigenvalues --   -0.74735  -0.73768  -0.73377  -0.72741  -0.71109
  Beta  occ. eigenvalues --   -0.69940  -0.69659  -0.68644  -0.67630  -0.67068
  Beta  occ. eigenvalues --   -0.64791  -0.63986  -0.63242  -0.62933  -0.62655
  Beta  occ. eigenvalues --   -0.60963  -0.60745  -0.59633  -0.58496  -0.58318
  Beta  occ. eigenvalues --   -0.57937  -0.57497  -0.57426  -0.56570  -0.56399
  Beta  occ. eigenvalues --   -0.55918  -0.55702  -0.55133  -0.55119  -0.54885
  Beta  occ. eigenvalues --   -0.54680  -0.54676  -0.53769  -0.53453  -0.53129
  Beta  occ. eigenvalues --   -0.49506  -0.48539  -0.48465  -0.48430  -0.48219
  Beta  occ. eigenvalues --   -0.48032  -0.47492  -0.47405  -0.46253  -0.46171
  Beta  occ. eigenvalues --   -0.45923  -0.45915  -0.44513  -0.44338  -0.41388
  Beta  occ. eigenvalues --   -0.41031  -0.40365  -0.40026  -0.39632  -0.37260
  Beta  occ. eigenvalues --   -0.37254  -0.35403  -0.33804  -0.33753  -0.33727
  Beta virt. eigenvalues --   -0.29101  -0.21126  -0.15261  -0.15205  -0.14930
  Beta virt. eigenvalues --   -0.12063  -0.11983  -0.10645  -0.10466  -0.10310
  Beta virt. eigenvalues --   -0.08903  -0.08825  -0.08532  -0.07672  -0.07523
  Beta virt. eigenvalues --   -0.07154  -0.07024  -0.06994  -0.06011  -0.05968
  Beta virt. eigenvalues --   -0.05683  -0.05571  -0.04750  -0.04308  -0.04302
  Beta virt. eigenvalues --   -0.03897  -0.03495  -0.03459  -0.03001  -0.02879
  Beta virt. eigenvalues --   -0.02716  -0.02438  -0.01802  -0.01759  -0.01372
  Beta virt. eigenvalues --   -0.01169  -0.01102  -0.00744  -0.00434  -0.00234
  Beta virt. eigenvalues --    0.00270   0.00428   0.00649   0.00719   0.01277
  Beta virt. eigenvalues --    0.01292   0.01716   0.02066   0.02346   0.02628
  Beta virt. eigenvalues --    0.03048   0.03094   0.03571   0.03617   0.03625
  Beta virt. eigenvalues --    0.04033   0.04037   0.04400   0.04563   0.04950
  Beta virt. eigenvalues --    0.05125   0.05239   0.05351   0.05599   0.05712
  Beta virt. eigenvalues --    0.05837   0.06081   0.06175   0.06345   0.06729
  Beta virt. eigenvalues --    0.06872   0.07151   0.07607   0.07686   0.07784
  Beta virt. eigenvalues --    0.07997   0.08041   0.08334   0.08532   0.08887
  Beta virt. eigenvalues --    0.09002   0.09381   0.09396   0.09673   0.09676
  Beta virt. eigenvalues --    0.10275   0.10438   0.10479   0.10526   0.10695
  Beta virt. eigenvalues --    0.10863   0.11276   0.11539   0.11608   0.11767
  Beta virt. eigenvalues --    0.11900   0.12084   0.12276   0.12414   0.12849
  Beta virt. eigenvalues --    0.12988   0.13073   0.13175   0.13177   0.13376
  Beta virt. eigenvalues --    0.13780   0.13870   0.14266   0.14646   0.15012
  Beta virt. eigenvalues --    0.15033   0.15257   0.15427   0.15722   0.15729
  Beta virt. eigenvalues --    0.15808   0.15955   0.15984   0.16264   0.16487
  Beta virt. eigenvalues --    0.16611   0.16753   0.17019   0.17476   0.17883
  Beta virt. eigenvalues --    0.17988   0.18190   0.18351   0.18512   0.18723
  Beta virt. eigenvalues --    0.19107   0.19174   0.19677   0.19901   0.20064
  Beta virt. eigenvalues --    0.20176   0.20209   0.20442   0.20544   0.20738
  Beta virt. eigenvalues --    0.20911   0.21237   0.21257   0.21831   0.21973
  Beta virt. eigenvalues --    0.22522   0.22662   0.22925   0.22951   0.23134
  Beta virt. eigenvalues --    0.23345   0.23401   0.23871   0.23931   0.24211
  Beta virt. eigenvalues --    0.24297   0.24632   0.24861   0.25082   0.25273
  Beta virt. eigenvalues --    0.25658   0.25736   0.25785   0.26289   0.26475
  Beta virt. eigenvalues --    0.27198   0.27570   0.27771   0.28366   0.28420
  Beta virt. eigenvalues --    0.28780   0.29473   0.29474   0.30049   0.30241
  Beta virt. eigenvalues --    0.30364   0.30792   0.30938   0.32287   0.32832
  Beta virt. eigenvalues --    0.32887   0.33483   0.33768   0.34510   0.34512
  Beta virt. eigenvalues --    0.34991   0.35210   0.35511   0.36040   0.36483
  Beta virt. eigenvalues --    0.36885   0.37259   0.37687   0.37910   0.38140
  Beta virt. eigenvalues --    0.39636   0.40729   0.41012   0.41830   0.44226
  Beta virt. eigenvalues --    0.45745   0.48069   0.48883   0.50296   0.50559
  Beta virt. eigenvalues --    0.50884   0.51304   0.52534   0.53987   0.54524
  Beta virt. eigenvalues --    0.57178   0.57524   0.57874   0.58184   0.58716
  Beta virt. eigenvalues --    0.58749   0.59326   0.59591   0.60086   0.60841
  Beta virt. eigenvalues --    0.61171   0.62018   0.62245   0.63170   0.63177
  Beta virt. eigenvalues --    0.63388   0.63467   0.64031   0.64087   0.64519
  Beta virt. eigenvalues --    0.64539   0.64816   0.65040   0.65596   0.65620
  Beta virt. eigenvalues --    0.65838   0.66074   0.66455   0.66782   0.66874
  Beta virt. eigenvalues --    0.66995   0.68006   0.68758   0.69396   0.69614
  Beta virt. eigenvalues --    0.69691   0.70344   0.70591   0.71113   0.71484
  Beta virt. eigenvalues --    0.72032   0.72474   0.72779   0.73410   0.73594
  Beta virt. eigenvalues --    0.73913   0.74670   0.75107   0.75488   0.76536
  Beta virt. eigenvalues --    0.76556   0.76937   0.77760   0.78496   0.78782
  Beta virt. eigenvalues --    0.79238   0.79773   0.79785   0.80679   0.82021
  Beta virt. eigenvalues --    0.82646   0.82827   0.82993   0.83462   0.84361
  Beta virt. eigenvalues --    0.84597   0.85064   0.85464   0.85656   0.86603
  Beta virt. eigenvalues --    0.86905   0.87067   0.87954   0.88061   0.88542
  Beta virt. eigenvalues --    0.89422   0.90227   0.90488   0.91774   0.92188
  Beta virt. eigenvalues --    0.92763   0.93294   0.93921   0.94019   0.94372
  Beta virt. eigenvalues --    0.95015   0.95236   0.96508   0.96826   0.98755
  Beta virt. eigenvalues --    0.99610   1.01017   1.01076   1.01535   1.02550
  Beta virt. eigenvalues --    1.02959   1.04242   1.04402   1.05004   1.05183
  Beta virt. eigenvalues --    1.05584   1.05730   1.06110   1.07535   1.07954
  Beta virt. eigenvalues --    1.08033   1.09417   1.09529   1.10072   1.11387
  Beta virt. eigenvalues --    1.11767   1.12884   1.13121   1.13465   1.14241
  Beta virt. eigenvalues --    1.15436   1.15481   1.15611   1.15873   1.15961
  Beta virt. eigenvalues --    1.16061   1.16827   1.17205   1.18447   1.18586
  Beta virt. eigenvalues --    1.18729   1.19093   1.20179   1.20287   1.20521
  Beta virt. eigenvalues --    1.21057   1.21825   1.22277   1.22537   1.24187
  Beta virt. eigenvalues --    1.24582   1.24887   1.25441   1.25760   1.25937
  Beta virt. eigenvalues --    1.26043   1.26165   1.26238   1.27238   1.27415
  Beta virt. eigenvalues --    1.28506   1.29072   1.29294   1.29301   1.29950
  Beta virt. eigenvalues --    1.30074   1.30226   1.30381   1.30631   1.30771
  Beta virt. eigenvalues --    1.31643   1.31811   1.32300   1.32498   1.32728
  Beta virt. eigenvalues --    1.32798   1.33654   1.34749   1.35760   1.36795
  Beta virt. eigenvalues --    1.38767   1.39174   1.41550   1.43518   1.43864
  Beta virt. eigenvalues --    1.45383   1.46215   1.47328   1.48411   1.48867
  Beta virt. eigenvalues --    1.50236   1.51047   1.53428   1.53727   1.54076
  Beta virt. eigenvalues --    1.58277   1.58371   1.61992   1.62164   1.63895
  Beta virt. eigenvalues --    1.63975   1.65324   1.65421   1.65786   1.66724
  Beta virt. eigenvalues --    1.67325   1.69243   1.69422   1.69603   1.69794
  Beta virt. eigenvalues --    1.70555   1.71674   1.71904   1.72036   1.72773
  Beta virt. eigenvalues --    1.74030   1.74179   1.75727   1.75845   1.76693
  Beta virt. eigenvalues --    1.77548   1.78088   1.79818   1.79861   1.81045
  Beta virt. eigenvalues --    1.81394   1.81539   1.81778   1.83034   1.83069
  Beta virt. eigenvalues --    1.83386   1.83501   1.83622   1.84261   1.84784
  Beta virt. eigenvalues --    1.85524   1.85890   1.86842   1.87127   1.87811
  Beta virt. eigenvalues --    1.89181   1.89227   1.89514   1.89671   1.90035
  Beta virt. eigenvalues --    1.91191   1.91923   1.92018   1.92338   1.93538
  Beta virt. eigenvalues --    1.94387   1.94555   1.94714   1.95316   1.96131
  Beta virt. eigenvalues --    1.97381   1.97630   1.99627   1.99654   2.00380
  Beta virt. eigenvalues --    2.00739   2.03125   2.03607   2.04978   2.05090
  Beta virt. eigenvalues --    2.05466   2.05658   2.05967   2.07967   2.10743
  Beta virt. eigenvalues --    2.11402   2.12930   2.14596   2.14643   2.15094
  Beta virt. eigenvalues --    2.15828   2.16835   2.17579   2.17750   2.17778
  Beta virt. eigenvalues --    2.18821   2.19724   2.21133   2.23521   2.23553
  Beta virt. eigenvalues --    2.24436   2.24880   2.24902   2.25881   2.26272
  Beta virt. eigenvalues --    2.26877   2.27290   2.27908   2.28635   2.28915
  Beta virt. eigenvalues --    2.29261   2.29402   2.29750   2.30481   2.30515
  Beta virt. eigenvalues --    2.30976   2.31219   2.32437   2.34436   2.35874
  Beta virt. eigenvalues --    2.36371   2.36604   2.36651   2.37738   2.38253
  Beta virt. eigenvalues --    2.38879   2.40614   2.41001   2.41144   2.41266
  Beta virt. eigenvalues --    2.41655   2.42543   2.43203   2.43321   2.43674
  Beta virt. eigenvalues --    2.44598   2.44890   2.45607   2.46067   2.46490
  Beta virt. eigenvalues --    2.47882   2.47990   2.48094   2.48352   2.49286
  Beta virt. eigenvalues --    2.49366   2.49933   2.51056   2.53216   2.53323
  Beta virt. eigenvalues --    2.53935   2.55015   2.55259   2.55613   2.56699
  Beta virt. eigenvalues --    2.57091   2.57127   2.58242   2.58555   2.61177
  Beta virt. eigenvalues --    2.61318   2.62142   2.62889   2.64587   2.65199
  Beta virt. eigenvalues --    2.65435   2.66339   2.67033   2.67177   2.68753
  Beta virt. eigenvalues --    2.69789   2.72110   2.73319   2.74826   2.75090
  Beta virt. eigenvalues --    2.77942   2.79428   2.79616   2.80247   2.80939
  Beta virt. eigenvalues --    2.81040   2.81908   2.83334   2.84226   2.87686
  Beta virt. eigenvalues --    2.88621   2.91892   2.91906   2.93786   2.95613
  Beta virt. eigenvalues --    2.98788   3.01215   3.03333   3.04229   3.08071
  Beta virt. eigenvalues --    3.08719   3.10860   3.11787   3.13439   3.14759
  Beta virt. eigenvalues --    3.15743   3.15990   3.17218   3.17332   3.18020
  Beta virt. eigenvalues --    3.18074   3.19172   3.22318   3.22732   3.25511
  Beta virt. eigenvalues --    3.27172   3.27998   3.28607   3.28640   3.32655
  Beta virt. eigenvalues --    3.36301   3.39200   3.39810   3.41979   3.43141
  Beta virt. eigenvalues --    3.44098   3.46345   3.71533   3.71635   3.79183
  Beta virt. eigenvalues --    3.79394   4.10157   4.18724   4.19073   4.21866
  Beta virt. eigenvalues --    4.21968   4.23081   4.23889   4.26589   4.26665
  Beta virt. eigenvalues --    4.27258   4.28855   4.29882   4.31382   4.34416
  Beta virt. eigenvalues --    4.35100   4.36859   4.37175   4.37351   4.38201
  Beta virt. eigenvalues --    4.40433   4.40524   4.48011   4.48046   4.48298
  Beta virt. eigenvalues --    4.48723   4.49331   4.51678   4.55580   4.61812
  Beta virt. eigenvalues --    4.65525   4.74604   4.75928   4.82711   4.83028
  Beta virt. eigenvalues --    4.88191   4.97604
          Condensed to atoms (all electrons):
          Atomic-Atomic Spin Densities.
 Mulliken charges and spin densities:
               1          2
     1  N   -0.514382  -0.007531
     2  C    0.016132  -0.018736
     3  C    0.223344  -0.006608
     4  C    0.411875   0.148409
     5  C    0.411849   0.148409
     6  C    0.223325  -0.006608
     7  C    0.016114  -0.018736
     8  N   -0.514383  -0.007531
     9  O   -0.441004   0.079548
    10  O   -0.441004   0.079548
    11  H    0.349326  -0.000243
    12  H    0.349326  -0.000243
    13  C    0.031729  -0.006231
    14  C    0.340876   0.024527
    15  C   -0.017692  -0.026063
    16  C    0.305127   0.065579
    17  C   -0.468146  -0.024801
    18  C   -0.300092   0.069365
    19  H    0.150957   0.000134
    20  H    0.122659  -0.003491
    21  H    0.152072   0.001014
    22  H    0.155892  -0.002998
    23  N    0.256253   0.131965
    24  C   -0.109821  -0.032185
    25  C    0.000410   0.024875
    26  C    0.078274   0.060797
    27  C   -0.254430  -0.009364
    28  C   -0.425521  -0.028502
    29  H    0.153258  -0.002676
    30  C   -0.181930   0.064820
    31  H    0.153096   0.000233
    32  H    0.154718   0.000968
    33  H    0.157058  -0.002805
    34  C   -0.254425  -0.009363
    35  C    0.000394   0.024874
    36  C   -0.109843  -0.032185
    37  C    0.078269   0.060797
    38  C   -0.425513  -0.028502
    39  C   -0.181929   0.064819
    40  H    0.153096   0.000233
    41  H    0.153258  -0.002676
    42  H    0.154718   0.000968
    43  H    0.157058  -0.002805
    44  N    0.256247   0.131965
    45  C   -0.017676  -0.026063
    46  C    0.340895   0.024528
    47  C    0.305114   0.065579
    48  C    0.031738  -0.006232
    49  C   -0.468152  -0.024801
    50  H    0.122658  -0.003491
    51  C   -0.300095   0.069365
    52  H    0.150957   0.000134
    53  H    0.152072   0.001014
    54  H    0.155892  -0.002998
 Sum of Mulliken charges =   1.00000   1.00000
 Mulliken charges and spin densities with hydrogens summed into heavy atoms:
               1          2
     1  N   -0.165056  -0.007775
     2  C    0.016132  -0.018736
     3  C    0.223344  -0.006608
     4  C    0.411875   0.148409
     5  C    0.411849   0.148409
     6  C    0.223325  -0.006608
     7  C    0.016114  -0.018736
     8  N   -0.165057  -0.007775
     9  O   -0.441004   0.079548
    10  O   -0.441004   0.079548
    13  C    0.182686  -0.006097
    14  C    0.340876   0.024527
    15  C   -0.017692  -0.026063
    16  C    0.427786   0.062089
    17  C   -0.316073  -0.023787
    18  C   -0.144200   0.066367
    23  N    0.256253   0.131965
    24  C   -0.109821  -0.032185
    25  C    0.000410   0.024875
    26  C    0.231531   0.058121
    27  C   -0.101334  -0.009131
    28  C   -0.270802  -0.027534
    30  C   -0.024872   0.062015
    34  C   -0.101329  -0.009130
    35  C    0.000394   0.024874
    36  C   -0.109843  -0.032185
    37  C    0.231526   0.058121
    38  C   -0.270795  -0.027533
    39  C   -0.024870   0.062014
    44  N    0.256247   0.131965
    45  C   -0.017676  -0.026063
    46  C    0.340895   0.024528
    47  C    0.427772   0.062088
    48  C    0.182695  -0.006098
    49  C   -0.316080  -0.023787
    51  C   -0.144203   0.066367
 Electronic spatial extent (au):  <R**2>=          19718.7135
 Charge=              1.0000 electrons
 Dipole moment (field-independent basis, Debye):
    X=             -0.0000    Y=             -0.0000    Z=             -0.1798  Tot=              0.1798
 Quadrupole moment (field-independent basis, Debye-Ang):
   XX=            -65.9366   YY=           -190.6726   ZZ=           -181.4871
   XY=            -12.0023   XZ=             -0.0000   YZ=              0.0000
 Traceless Quadrupole moment (field-independent basis, Debye-Ang):
   XX=             80.0955   YY=            -44.6405   ZZ=            -35.4550
   XY=            -12.0023   XZ=             -0.0000   YZ=              0.0000
 Octapole moment (field-independent basis, Debye-Ang**2):
  XXX=             -0.0003  YYY=              0.0003  ZZZ=              5.8481  XYY=              0.0005
  XXY=             -0.0014  XXZ=             40.0170  XZZ=             -0.0007  YZZ=             -0.0001
  YYZ=             -9.4932  XYZ=           -147.4907
 Hexadecapole moment (field-independent basis, Debye-Ang**3):
 XXXX=         -15163.4235 YYYY=          -3555.2395 ZZZZ=          -2485.0247 XXXY=             72.5111
 XXXZ=             -0.0034 YYYX=            -85.0653 YYYZ=             -0.0011 ZZZX=              0.0001
 ZZZY=              0.0015 XXYY=          -3665.0581 XXZZ=          -3500.7707 YYZZ=           -740.3950
 XXYZ=             -0.0001 YYXZ=              0.0005 ZZXY=            -21.0583
 N-N= 3.478885712626D+03 E-N=-1.046455007126D+04  KE= 1.509021318491D+03
                          Isotropic Fermi Contact Couplings
        Atom                 a.u.       MegaHertz       Gauss      10(-4) cm-1
     1  N(14)             -0.00121      -0.38961      -0.13902      -0.12996
     2  C(13)             -0.00661      -7.43497      -2.65298      -2.48004
     3  C(13)             -0.00532      -5.98286      -2.13483      -1.99567
     4  C(13)              0.01156      12.99428       4.63668       4.33443
     5  C(13)              0.01156      12.99442       4.63673       4.33447
     6  C(13)             -0.00532      -5.98292      -2.13486      -1.99569
     7  C(13)             -0.00661      -7.43493      -2.65297      -2.48003
     8  N(14)             -0.00121      -0.38962      -0.13902      -0.12996
[...]
 000291,0.00000656,0.00000738,-0.00000386,-0.00000181,0.00000570,-0.000
 58381,-0.00011614,0.00004748,0.00221538,-0.00045668,0.00711532,0.00083
 215,0.00225211,-0.00139698,0.00061414,-0.00157838,0.00083882,-0.001621
 16,0.00034535,-0.00050650,0.00062213,0.00063666,-0.00064684,-0.0001111
 3,-0.00003872,-0.00012280,0.00003902,0.00009983,-0.00009353,-0.0000382
 6,0.00001808,0.00002352,0.00001630,0.00001112,-0.00001029,0.00030837,-
 0.00036284,0.00017564,-0.02097325,0.01001029,-0.01907323,0.03203378,0.
 03523795,-0.01911886,0.00371754,-0.02542496,0.02960425,-0.07202303,0.1
 1999012,-0.17618248,-0.02705487,0.04019316,-0.10379710,0.00152635,0.00
 508736,0.00285792,0.02470783,-0.27785156,0.38264331,-0.00013361,-0.000
 02289,0.00003725,0.00003529,-0.00000418,-0.00000038,0.00026174,-0.0002
 1934,0.00018550,-0.00003275,0.00003255,-0.00003052,-0.00001818,0.00001
 670,0.00000454,0.00004148,-0.00001602,0.00000063,0.00002429,-0.0000406
 8,-0.00000925,-0.00001320,0.00000550,-0.00000183,-0.00002662,-0.000026
 31,-0.00000094,-0.00000319,0.00002623,0.00001932,0.00000118,-0.0000050
 3,-0.00000276,-0.00002011,0.00001693,-0.00001441,-0.00000095,-0.000018
 36,-0.00001512,0.00000875,0.00001155,0.00000682,0.00000267,0.00000659,
 -0.00000230,-0.00000155,0.00000248,0.00000270,-0.00000310,0.00000484,0
 .00000272,-0.00000965,0.00000655,0.00000673,-0.00000081,-0.00000006,0.
 00000047,0.00000079,0.00000069,0.00000357,0.00000047,-0.00000065,-0.00
 000066,-0.00000068,-0.00000049,0.00000005,-0.00003033,0.00000417,0.000
 00380,0.00001328,-0.00000918,-0.00000140,0.00000830,-0.00000939,-0.000
 00831,-0.00000454,-0.00000332,-0.00000229,-0.00000493,0.00001543,0.000
 01340,-0.00000024,-0.00000240,-0.00000283,0.00000063,-0.00000165,-0.00
 000213,-0.00000693,-0.00000806,-0.00000502,-0.00000070,0.00000006,-0.0
 0000057,-0.00000048,0.00000126,0.00000062,-0.00000071,0.00000012,0.000
 00033,-0.00019124,-0.00034153,0.00024193,0.00055555,0.00113595,-0.0002
 5039,-0.00032421,-0.00011939,0.00002174,0.00002167,0.00015491,-0.00012
 709,0.00014530,0.00001727,0.00000969,0.00019603,-0.00009738,0.00013276
 ,0.00037191,-0.00010498,0.00010603,-0.00000411,-0.00000231,-0.00000385
 ,0.00002662,0.00000038,-0.00000756,-0.00000784,-0.00001878,0.00001224,
 -0.00101292,0.00010928,-0.00033167,0.00058834,-0.00262386,0.00135502,-
 0.01543373,0.00233892,-0.00483483,0.00034172,-0.00008173,0.00025086,-0
 .32977283,0.01816224,-0.05928736,0.00136710,0.00086782,-0.00150199,-0.
 00007245,0.00011100,0.00002551,-0.00504713,-0.00110297,-0.00042049,0.3
 4780424,-0.00019234,-0.00011314,-0.00012182,0.00007815,-0.00006534,-0.
 00003805,0.00035233,-0.00025077,0.00027239,-0.00005866,0.00007692,0.00
 000859,0.00000452,0.00004134,0.00001019,0.00000915,-0.00000789,0.00000
 295,-0.00004351,-0.00013326,-0.00000442,0.00001251,0.00000800,-0.00001
 355,-0.00003187,-0.00000545,0.00001589,0.00007074,0.00007123,-0.000039
 61,-0.00000235,-0.00000067,0.00000421,-0.00003855,0.00001333,-0.000007
 25,-0.00000033,-0.00000622,-0.00000521,0.00000235,0.00000275,0.0000019
 6,0.00000280,0.00000570,-0.00000177,-0.00000410,0.00000183,-0.00000070
 ,0.00000119,0.00000196,0.00000090,-0.00000439,0.00000221,0.00000246,-0
 .00000006,-0.00000016,0.00000019,-0.00000001,-0.00000032,0.00000232,-0
 .00000047,-0.00000085,-0.00000036,-0.00000037,-0.00000013,0.00000008,-
 0.00001928,-0.00000101,0.00000505,0.00000259,-0.00000483,-0.00000097,0
 .00000108,-0.00000105,-0.00000178,-0.00000023,-0.00000005,-0.00000028,
 -0.00000154,0.00000216,0.00000257,0.00000057,-0.00000035,-0.00000013,0
 .00000011,0.00000030,0.00000047,-0.00000193,-0.00000133,-0.00000131,-0
 .00000032,0.00000003,0.00000003,0.00000018,0.00000008,0.00000007,0.000
 00007,0.00000008,0.00000005,-0.00041238,-0.00010349,-0.00003000,0.0008
 8133,-0.00086160,-0.00220068,-0.00025921,0.00018691,-0.00020212,0.0001
 0636,0.00006027,0.00003090,-0.00001950,0.00003455,-0.00006039,0.000239
 57,-0.00002084,0.00002684,0.00023703,-0.00014966,0.00051311,0.00000386
 ,0.00002380,-0.00000214,0.00002610,0.00003156,0.00002474,-0.00000625,0
 .00000521,0.00000747,-0.00146713,-0.00005349,0.00021799,-0.00214479,0.
 00113038,0.00483362,-0.01912015,0.00600963,-0.00520645,-0.00030926,-0.
 00116657,0.00023021,0.01687431,-0.05245772,0.01547704,0.00056204,0.000
 12086,0.00610184,0.00011621,-0.00033487,-0.00056012,0.02178626,0.00354
 995,0.00350439,-0.01840654,0.04536053,0.00003918,-0.00009441,-0.000115
 02,0.00003749,0.00002658,-0.00002698,0.00000612,0.00031521,-0.00012159
 ,0.00002127,0.00000919,0.00004892,0.00000425,-0.00000009,0.00001822,0.
 00002936,-0.00000605,-0.00000041,-0.00002427,-0.00004179,-0.00001648,-
 0.00000110,0.00000146,-0.00000829,-0.00000758,-0.00001671,0.00001438,0
 .00004622,0.00001326,-0.00001905,0.00000152,-0.00000069,-0.00000018,-0
 .00000705,0.00000103,0.00001952,-0.00000102,-0.00001453,-0.00001295,0.
 00000756,0.00000865,0.00000554,0.00000294,0.00000455,-0.00000353,-0.00
 000410,0.00000279,0.00000165,-0.00000012,0.00000535,0.00000161,-0.0000
 0839,0.00000564,0.00000601,-0.00000038,-0.00000018,0.00000079,0.000000
 27,-0.00000053,0.00000405,0.00000021,-0.00000128,-0.00000024,-0.000000
 69,-0.00000065,0.00000031,-0.00001704,0.00000237,0.00000391,0.00000619
 ,-0.00000465,-0.00000017,0.00000640,-0.00000612,-0.00000531,-0.0000015
 3,-0.00000199,-0.00000172,-0.00000296,0.00000987,0.00000840,-0.0000004
 4,-0.00000128,-0.00000225,0.00000037,-0.00000112,0.00000033,-0.0000041
 6,-0.00000496,-0.00000383,-0.00000061,-0.00000038,-0.00000017,0.000000
 56,0.00000011,0.00000053,-0.00000032,-0.00000005,0.00000059,0.00039507
 ,-0.00004337,0.00005070,-0.00030054,-0.00195656,-0.00194151,0.00014025
 ,-0.00004402,0.00004500,-0.00008559,-0.00006102,0.00010135,-0.00009316
 ,-0.00003488,-0.00002248,-0.00011327,0.00005243,-0.00010860,-0.0002222
 1,0.00045927,-0.00006499,0.00000127,0.00000424,0.00002166,-0.00002859,
 0.00002267,0.00003285,0.00000361,0.00001459,0.00000961,0.00091665,0.00
 011741,0.00042643,0.00034360,0.00495471,0.00278937,0.01486233,-0.00170
 446,0.00665612,0.00030225,-0.00013600,-0.00061453,-0.05834735,0.014592
 13,-0.05811716,-0.00086748,0.00631643,0.00141581,0.00009314,-0.0005755
 6,-0.00051119,-0.02092977,0.00086242,-0.00004380,0.06404065,-0.0205511
 8,0.05202499,-0.00008653,0.00002587,-0.00000189,0.00004540,-0.00007093
 ,0.00000507,0.00044480,-0.00004989,0.00002411,-0.00007635,0.00011432,-
 0.00002693,-0.00005953,0.00006871,0.00000148,0.00000716,-0.00009446,0.
 00000110,-0.00009869,-0.00026967,0.00002703,0.00006334,0.00006817,-0.0
 0001964,-0.00000347,0.00003098,-0.00000503,0.00007222,0.00020660,-0.00
 008144,-0.00000846,-0.00000778,0.00002156,0.00000878,0.00000627,0.0000
 0563,0.00000039,0.00000871,0.00000721,-0.00000639,-0.00000364,-0.00000
 474,0.00000282,0.00000630,0.00000440,0.00000129,-0.00000251,-0.0000022
 7,0.00000115,-0.00000060,-0.00000372,0.00000324,-0.00000447,-0.0000033
 0,0.00000038,-0.00000049,-0.00000019,0.00000080,-0.00000284,0.00000136
 ,-0.00000061,-0.00000037,0.00000084,0.00000057,0.00000004,0.00000050,-
 0.00002325,0.00000434,0.00000027,0.00000073,-0.00000622,-0.00000291,-0
 .00000627,0.00000061,0.00000589,0.00000132,0.00000432,0.00000100,0.000
 00128,-0.00000595,-0.00000712,0.00000092,0.00000385,0.00000048,0.00000
 051,-0.00000123,0.00000372,0.00000121,0.00000359,0.00000272,0.00000038
 ,0.00000010,0.00000072,-0.00000032,-0.00000071,0.00000075,0.00000054,-
 0.00000048,0.00000023,-0.00002244,-0.00000407,-0.00000912,0.00011933,0
 .00010163,0.00003267,-0.00037548,-0.00016834,0.00004060,0.00013501,0.0
 0002884,0.00004722,-0.00000373,-0.00001678,0.00002607,0.00001115,-0.00
 001424,0.00002719,0.00003235,-0.00002632,0.00002055,-0.00000208,0.0000
 0215,-0.00000545,0.00001622,-0.00001142,-0.00000483,0.00000034,0.00000
 005,-0.00000164,0.00055869,-0.00106743,0.00094340,-0.00248206,-0.00298
 173,0.00091116,-0.00106700,-0.00062171,0.00051519,0.00933044,-0.015663
 40,0.01528751,-0.00539522,-0.00080077,-0.00149800,-0.08664397,0.059191
 31,-0.06263123,0.00094565,0.00074207,0.00033862,-0.00473798,0.02152047
 ,-0.02072871,-0.00033577,0.00108191,-0.00093971,0.08871350,-0.00011058
 ,-0.00006234,-0.00000274,0.00005118,0.00001212,0.00001074,0.00028754,0
 .00009165,0.00009291,0.00003278,0.00005159,-0.00003554,-0.00006947,0.0
 0000925,0.00000547,0.00006780,-0.00008046,0.00000865,-0.00004089,-0.00
 012904,0.00002096,0.00001231,0.00004337,-0.00000991,-0.00003487,-0.000
 03742,-0.00000629,0.00006113,0.00006415,-0.00007482,-0.00000063,-0.000
 00205,0.00001236,-0.00001180,0.00001085,0.00001023,-0.00000055,-0.0000
 2424,-0.00002061,0.00001121,0.00001648,0.00000725,0.00000995,0.0000131
 6,0.,-0.00000699,0.00000491,0.00000062,-0.00000404,0.00000795,-0.00000
 027,-0.00001410,0.00000836,0.00000810,-0.00000058,-0.00000083,0.000001
 28,0.00000343,-0.00000291,0.00001221,-0.00000032,-0.00000413,0.0000003
 7,-0.00000086,-0.00000154,0.00000108,-0.00004228,0.00001042,0.00000250
 ,0.00001035,-0.00001187,-0.00000069,0.00001004,-0.00001148,-0.00000751
 ,-0.00000283,-0.00000198,-0.00000126,-0.00000645,0.00001707,0.00001451
 ,0.00000053,-0.00000201,-0.00000451,0.00000038,-0.00000177,0.00000059,
 -0.00000850,-0.00000878,-0.00000651,-0.00000118,-0.00000032,0.00000004
 ,0.00000025,0.00000049,0.00000059,-0.00000031,-0.00000026,0.00000076,-
 0.00004186,0.00008452,-0.00004071,0.00007747,-0.00024814,-0.00014901,-
 0.00015348,-0.00018660,0.00010105,0.00004990,-0.00006917,-0.00026109,0
 .00013764,-0.00002433,0.00003473,-0.00006100,-0.00012638,0.00003824,-0
 .00000032,0.00002366,0.00003077,-0.00000476,0.00000209,-0.00000284,0.0
 0000089,0.00004036,0.00005095,-0.00000105,-0.00000181,0.00000241,0.000
 37685,0.00015484,0.00081688,-0.00336474,0.00146489,0.00364662,-0.00039
 644,-0.00029807,-0.00062117,0.00708057,-0.00837321,0.01200344,-0.00068
 283,0.00358481,0.00240111,0.05829469,-0.18147622,0.13996660,0.00049757
 ,-0.00128682,-0.00247336,-0.00085995,0.00303686,0.00024021,-0.00013036
 ,0.00007017,-0.00006101,-0.06156294,0.18490446,0.00007415,0.00000645,-
 0.00002285,-0.00002606,0.00003211,0.00000049,-0.00028408,0.00001449,0.
 00001330,0.00000258,-0.00015625,0.00001574,0.00012203,-0.00006342,-0.0
 0002651,-0.00009198,0.00019067,0.00001496,0.00020332,0.00042820,0.0000
 0303,-0.00013646,-0.00013776,0.00001287,0.00000970,-0.00000665,0.00000
 189,-0.00012588,-0.00037291,0.00000785,0.00000746,0.00001897,-0.000005
 33,0.00000116,-0.00000946,0.00000686,0.00000116,0.00000546,0.00000284,
 -0.00000018,-0.00000438,-0.00000516,-0.00000697,-0.00001928,-0.0000012
 4,-0.00000492,0.00000324,0.00000101,0.00000146,-0.00000272,-0.00000126
 ,0.00000434,-0.00000209,-0.00000155,0.00000064,0.00000037,-0.00000018,
 -0.00000060,0.00000035,-0.00000271,-0.00000082,-0.00000038,0.00000013,
 0.00000012,0.00000023,-0.00000021,0.00006531,-0.00001348,-0.00000244,-
 0.00001958,0.00002181,0.00000704,0.00000139,0.00000756,0.00000617,0.00
 000559,-0.00000145,-0.00000025,0.00000190,-0.00000959,-0.00000609,-0.0
 0000010,-0.00000267,0.00000415,-0.00000142,0.00000601,-0.00000246,0.00
 000501,0.00000307,0.00000106,0.00000030,0.00000005,0.00000017,0.000001
 67,-0.00000018,-0.00000230,0.00000046,0.00000071,-0.00000108,-0.000069
 09,0.00008487,-0.00004177,0.00001360,-0.00032312,-0.00017833,0.0003570
 7,-0.00004648,0.00007979,-0.00007465,-0.00005500,-0.00029983,0.0001714
 5,-0.00000197,0.00001553,-0.00008296,-0.00012501,0.00002790,0.00000054
 ,0.00002396,0.00003443,0.00000017,-0.00000114,0.00000304,-0.00001240,0
 .00004907,0.00004636,-0.00000249,0.00000171,0.00000099,-0.00039000,0.0
 0091325,0.00002285,0.00144414,0.00337933,0.00384180,0.00006695,-0.0007
 4950,-0.00020132,-0.00434459,0.00854160,-0.00494610,-0.00173649,0.0023
 8170,0.00391131,-0.06282690,0.13953494,-0.17303293,0.00039333,-0.00252
 060,-0.00188802,-0.00016953,0.00454346,-0.00054141,0.00003642,0.000239
 10,-0.00017394,0.06700905,-0.15360415,0.17503155,-0.00001876,-0.000044
 43,0.00000724,0.00003135,0.00001986,-0.00001171,0.00003697,0.00005972,
 -0.00000346,-0.00001553,-0.00002859,0.00002783,0.00003585,0.00001646,0
 .00001807,0.00001919,0.00001822,-0.00000075,0.00011801,0.00004451,-0.0
 0004734,-0.00004750,-0.00000647,0.00000200,-0.00001441,-0.00002133,0.0
 0000311,-0.00008847,-0.00000789,0.00005964,0.00000042,-0.00001035,-0.0
 0000018,-0.00000830,0.00000388,-0.00000101,-0.00000124,-0.00001570,-0.
 00001327,0.00000865,0.00001034,0.00000396,0.00000084,0.00000139,-0.000
 00285,-0.00000111,0.00000244,0.00000299,-0.00000241,0.00000488,0.00000
 197,-0.00000879,0.00000610,0.00000629,-0.00000068,-0.00000036,0.000000
 71,0.00000077,0.00000042,0.00000267,0.00000060,-0.00000086,-0.00000010
 ,-0.00000056,-0.00000066,0.00000035,-0.00001199,0.00000409,0.00000298,
 0.00000861,-0.00000434,-0.00000189,0.00000765,-0.00000823,-0.00000632,
 -0.00000341,-0.00000249,-0.00000205,-0.00000434,0.00001322,0.00001174,
 -0.00000094,-0.00000203,-0.00000291,0.00000093,-0.00000259,-0.00000157
 ,-0.00000599,-0.00000632,-0.00000477,-0.00000049,-0.00000027,-0.000000
 20,-0.00000039,0.00000050,0.00000130,-0.00000064,-0.00000024,0.0000005
 8,0.00003049,-0.00003841,0.00004057,0.00062447,0.00022781,-0.00019835,
 -0.00012238,0.00017791,-0.00008995,0.00008739,-0.00002041,0.00003419,-
 0.00004426,-0.00000584,-0.00000361,-0.00000136,0.00002719,-0.00001736,
 -0.00001255,-0.00000139,-0.00001194,0.00000259,0.00001451,-0.00001805,
 -0.00000002,0.00000088,0.00000169,0.00000189,0.00000434,-0.00000437,0.
 00001599,-0.00007459,0.00021109,-0.00043210,0.00093901,-0.00092914,0.0
 0007393,0.00169825,-0.00257878,-0.00462937,0.00047096,-0.00251565,0.01
 088631,0.00811014,-0.00592712,-0.01436084,-0.01965747,0.01419809,-0.00
 071530,-0.00096901,0.00063423,-0.17886310,-0.11762728,0.07836110,0.000
 69811,0.00009221,0.00070071,0.00091371,0.00054249,0.00040569,0.1858125
 0,0.00005061,0.00009802,0.00001044,-0.00007677,0.00006223,0.00000959,-
 0.00005097,-0.00002439,-0.00014436,-0.00003814,0.00001457,0.00001368,-
 0.00000595,-0.00002852,0.00000330,0.00002623,-0.00001788,-0.00000102,-
 0.00000380,0.00003995,0.00002144,-0.00000616,0.00000163,0.00000299,0.0
 0001269,-0.00001806,-0.00000492,-0.00001360,-0.00002318,-0.00001471,0.
 00000301,-0.00000015,0.00000112,0.00001706,0.00000343,0.00001247,-0.00
 000035,-0.00001493,-0.00001325,0.00000789,0.00000763,0.00000685,0.0000
 0280,0.00000362,-0.00000267,-0.00000268,0.00000238,0.00000304,-0.00000
 336,0.00000422,0.00000079,-0.00000748,0.00000557,0.00000513,-0.0000003
 7,-0.00000010,0.00000066,0.00000125,0.00000025,0.00000483,0.00000007,-
 0.00000148,-0.00000026,-0.00000061,-0.00000073,0.00000041,-0.00000991,
 0.00000688,-0.00000154,0.00000503,-0.00000513,0.00000358,0.00000702,-0
 .00000466,-0.00000675,-0.00000163,-0.00000217,-0.00000220,-0.00000341,
 0.00001097,0.00000943,-0.00000033,-0.00000139,-0.00000264,0.00000009,-
 0.00000107,0.00000011,-0.00000461,-0.00000610,-0.00000416,-0.00000067,
 -0.00000010,-0.00000029,0.00000036,0.00000050,0.00000020,-0.00000029,-
 0.00000006,0.00000051,-0.00005605,0.00000597,-0.00001454,-0.00091531,0
 .00010642,0.00023373,0.00024262,-0.00038528,0.00003769,-0.00010429,-0.
 00003261,-0.00005005,0.00001090,-0.00002025,0.00001741,0.00001487,-0.0
 0002617,0.00000152,0.00001134,0.00001375,0.00001848,0.00000243,-0.0000
 1365,0.00003801,-0.00000033,-0.00000132,0.00000192,-0.00000106,-0.0000
 1080,0.00001449,0.00017679,-0.00018572,-0.00040437,0.00064823,-0.00021
 272,0.00004925,0.00182911,0.00083198,0.00544535,0.00051175,0.00353805,
 0.00269746,-0.01454665,-0.00873050,0.00847429,0.00282661,0.00528153,-0
 .00088699,0.00020462,0.00010585,-0.00009501,-0.11741307,-0.16214594,0.
 08830949,0.00036845,-0.00107068,-0.00243687,0.00024021,-0.00125431,-0.
 00220311,0.12604581,0.16409465,0.00012305,0.00007939,0.00002520,-0.000
 14170,0.00008706,0.00000517,-0.00020891,0.00003667,-0.00015646,0.00002
 134,-0.00002484,0.00003920,0.00002290,-0.00006955,0.00000102,-0.000002
 31,-0.00000207,-0.00000211,0.00001915,0.00011417,0.00001550,-0.0000071
 6,-0.00000732,0.00000854,0.00003037,-0.00002042,-0.00000094,-0.0000406
 9,-0.00006374,-0.00001874,0.00000254,0.00000198,0.00000343,-0.00000687
 ,-0.00000352,-0.00001396,0.00000023,-0.00000646,-0.00000604,0.00000414
 ,0.00000278,0.00000274,0.00000056,-0.00000256,-0.00000269,-0.00000109,
 0.00000093,0.00000329,-0.00000275,0.00000172,-0.00000051,-0.00000269,0
 .00000209,0.00000164,-0.00000004,-0.00000008,0.00000031,0.00000114,0.0
 0000068,0.00000256,-0.00000049,-0.00000108,-0.00000022,-0.00000035,-0.
 00000041,0.00000037,0.00001417,0.00000579,-0.00000425,-0.00000339,0.00
 000109,0.00000520,0.00000396,-0.00000007,-0.00000260,0.00000068,-0.000
 00096,-0.00000065,-0.00000152,0.00000378,0.00000365,-0.00000009,-0.000
 00022,-0.00000092,-0.00000026,0.00000044,0.00000092,-0.00000185,-0.000
 00252,-0.00000220,-0.00000029,0.00000002,-0.00000006,0.00000054,0.0000
 0004,-0.00000023,0.00000018,-0.00000013,0.00000022,0.00007826,0.000032
 37,0.00001058,0.00077200,0.00024671,0.00031191,-0.00002586,0.00010523,
 -0.00040492,0.00010689,-0.00000551,-0.00003409,0.00003479,0.00000898,-
 0.00001290,-0.00003273,-0.00001882,-0.00001176,-0.00001343,0.00000530,
 0.00001409,0.00001285,0.00004747,-0.00000753,0.00000101,0.00000254,0.0
 0000077,-0.00000016,0.00001729,-0.00000789,0.00036549,-0.00030026,-0.0
 0039936,-0.00068787,-0.00017983,-0.00029842,-0.00258392,0.00561628,0.0
 0173935,-0.00252558,0.00283036,0.00350447,0.01406238,0.01221125,-0.004
 60370,-0.00623109,-0.00489363,0.00698650,-0.00034190,-0.00033205,0.000
 12251,0.07852521,0.08828109,-0.10168515,0.00034467,-0.00248732,-0.0017
 7224,0.00066258,-0.00216020,-0.00172984,-0.08234609,-0.09915994,0.0983
 7122\\-0.00000048,-0.00000041,0.00000085,0.00000063,-0.00000012,-0.000
 00016,-0.00000016,0.00000090,0.00000065,0.00000028,-0.00000040,-0.0000
 0036,-0.00000027,0.00000047,-0.00000031,0.00000017,-0.00000092,0.00000
 059,-0.00000062,0.00000009,0.00000018,0.00000053,0.00000041,0.00000075
 ,-0.00000035,0.00000011,0.00000006,0.00000035,-0.00000010,-0.00000008,
 0.00000022,0.00000002,-0.00000045,-0.00000020,-0.00000004,-0.00000048,
 -0.00000010,0.00000050,-0.00000003,-0.00000011,0.00000020,0.00000018,0
 .00000013,-0.00000021,0.00000051,-0.00000015,0.00000038,-0.00000015,-0
 .00000018,0.00000027,-0.00000003,-0.00000006,0.00000032,-0.00000005,-0
 .00000012,0.00000045,-0.00000002,-0.00000014,0.00000021,-0.00000005,-0
 .00000022,0.00000025,0.00000003,-0.00000023,0.00000039,0.00000002,0.,0
 .00000109,-0.00000127,0.,0.00000022,0.00000049,0.00000006,0.00000032,-
 0.00000003,0.00000021,0.00000021,-0.00000026,0.00000009,0.00000036,0.0
 0000001,-0.00000002,0.00000031,0.00000005,0.00000011,0.00000025,-0.000
 00003,0.00000025,0.00000048,0.00000006,0.00000003,0.00000046,0.,0.0000
 0024,0.00000030,-0.00000001,0.00000015,0.00000045,-0.00000002,-0.00000
 009,-0.00000036,-0.00000002,-0.00000007,-0.00000034,-0.00000004,-0.000
 00001,-0.00000023,0.00000057,-0.00000022,-0.00000014,-0.00000028,0.000
 00001,-0.00000031,0.00000005,-0.00000024,-0.00000049,0.00000006,-0.000
 00003,-0.00000045,0.,-0.00000017,-0.00000025,0.,-0.00000025,-0.0000003
 0,-0.00000002,-0.00000015,-0.00000045,-0.00000001,0.,-0.00000123,-0.00
 000137,-0.00000016,0.00000028,0.00000055,0.00000012,-0.00000020,0.0000
 0015,0.00000015,-0.00000036,-0.00000014,0.00000011,-0.00000050,-0.0000
 0003,0.00000019,-0.00000026,-0.00000003,0.00000014,-0.00000022,-0.0000
 0006,0.00000006,-0.00000032,-0.00000005,0.00000012,-0.00000044,-0.0000
 0001,0.00000022,-0.00000025,0.00000002,0.00000023,-0.00000039,0.000000
 02\\\@
 The archive entry for this job was punched.


 THE MOST SERIOUS THREAT TO THE SURVIVAL OF MANKIND IS NOT NOW
 IGNORANCE IN THE TRADITIONAL SENSE,
 BUT A MORALLY NEUTRAL, AN INSENSITIVE OR INHIBITED HUMAN INTELLIGENCE.

                     -- MARGO JEFFERSON IN NEWSWEEK, SEPTEMBER 2, 1974
 Job cpu time:       3 days 17 hours 44 minutes 59.3 seconds.
 Elapsed time:       0 days  3 hours 44 minutes 33.7 seconds.
 File lengths (MBytes):  RWF=   5392 Int=      0 D2E=      0 Chk=     67 Scr=      1
 Normal termination of Gaussian 16 at Tue Nov 14 12:08:20 2023.
