 Entering Gaussian System, Link 0=g16
 Initial command:
 /home/aderezen/G16/AVX2//g16/l1.exe "/lustre/scratch/natrosa/12372018/Gau-98479.inp" -scrdir="/lustre/scratch/natrosa/12372018/"
 Entering Link 1 = /home/aderezen/G16/AVX2//g16/l1.exe PID=     98480.
  
 Copyright (c) 1988-2019, Gaussian, Inc.  All Rights Reserved.
  
 This is part of the Gaussian(R) 16 program.  It is based on
 the Gaussian(R) 09 system (copyright 2009, Gaussian, Inc.),
 the Gaussian(R) 03 system (copyright 2003, Gaussian, Inc.),
 the Gaussian(R) 98 system (copyright 1998, Gaussian, Inc.),
 the Gaussian(R) 94 system (copyright 1995, Gaussian, Inc.),
 the Gaussian 92(TM) system (copyright 1992, Gaussian, Inc.),
 the Gaussian 90(TM) system (copyright 1990, Gaussian, Inc.),
 the Gaussian 88(TM) system (copyright 1988, Gaussian, Inc.),
 the Gaussian 86(TM) system (copyright 1986, Carnegie Mellon
 University), and the Gaussian 82(TM) system (copyright 1983,
 Carnegie Mellon University). Gaussian is a federally registered
 trademark of Gaussian, Inc.
  
 This software contains proprietary and confidential information,
 including trade secrets, belonging to Gaussian, Inc.
  
 This software is provided under written license and may be
 used, copied, transmitted, or stored only in accord with that
 written license.
  
 The following legend is applicable only to US Government
 contracts under FAR:
  
                    RESTRICTED RIGHTS LEGEND
  
 Use, reproduction and disclosure by the US Government is
 subject to restrictions as set forth in subparagraphs (a)
 and (c) of the Commercial Computer Software - Restricted
 Rights clause in FAR 52.227-19.
  
 Gaussian, Inc.
 340 Quinnipiac St., Bldg. 40, Wallingford CT 06492
  
  
 ---------------------------------------------------------------
 Warning -- This program may not be used in any manner that
 competes with the business of Gaussian, Inc. or will provide
 assistance to any competitor of Gaussian, Inc.  The licensee
 of this program is prohibited from giving any competitor of
 Gaussian, Inc. access to this program.  By using this program,
 the user acknowledges that Gaussian, Inc. is engaged in the
 business of creating and licensing software in the field of
 computational chemistry and represents and warrants to the
 licensee that it is not a competitor of Gaussian, Inc. and that
 it will not use this program in any manner prohibited above.
 ---------------------------------------------------------------
  

 Cite this work as:
 Gaussian 16, Revision C.01,
 M. J. Frisch, G. W. Trucks, H. B. Schlegel, G. E. Scuseria, 
 M. A. Robb, J. R. Cheeseman, G. Scalmani, V. Barone, 
 G. A. Petersson, H. Nakatsuji, X. Li, M. Caricato, A. V. Marenich, 
 J. Bloino, B. G. Janesko, R. Gomperts, B. Mennucci, H. P. Hratchian, 
 J. V. Ortiz, A. F. Izmaylov, J. L. Sonnenberg, D. Williams-Young, 
 F. Ding, F. Lipparini, F. Egidi, J. Goings, B. Peng, A. Petrone, 
 T. Henderson, D. Ranasinghe, V. G. Zakrzewski, J. Gao, N. Rega, 
 G. Zheng, W. Liang, M. Hada, M. Ehara, K. Toyota, R. Fukuda, 
 J. Hasegawa, M. Ishida, T. Nakajima, Y. Honda, O. Kitao, H. Nakai, 
 T. Vreven, K. Throssell, J. A. Montgomery, Jr., J. E. Peralta, 
 F. Ogliaro, M. J. Bearpark, J. J. Heyd, E. N. Brothers, K. N. Kudin, 
 V. N. Staroverov, T. A. Keith, R. Kobayashi, J. Normand, 
 K. Raghavachari, A. P. Rendell, J. C. Burant, S. S. Iyengar, 
 J. Tomasi, M. Cossi, J. M. Millam, M. Klene, C. Adamo, R. Cammi, 
 J. W. Ochterski, R. L. Martin, K. Morokuma, O. Farkas, 
 J. B. Foresman, and D. J. Fox, Gaussian, Inc., Wallingford CT, 2019.
 
 ******************************************
 Gaussian 16:  ES64L-G16RevC.01  3-Jul-2019
                16-Nov-2023 
 ******************************************
 %chk=SUB-12-ANION.chk
 %nprocshared=24
 Will use up to   24 processors via shared memory.
 %mem=5500MB
 ----------------------------------------------------
 # opt=tight freq b3lyp/6-31+g(d,p) geom=connectivity
 ----------------------------------------------------
 1/7=10,18=20,19=15,26=3,38=1,57=2/1,3;
 2/9=110,12=2,17=6,18=5,40=1/2;
 3/5=1,6=6,7=111,11=2,25=1,30=1,71=1,74=-5/1,2,3;
 4//1;
 5/5=2,38=5/2;
 6/7=2,8=2,9=2,10=2,28=1/1;
 7//1,2,3,16;
 1/7=10,18=20,19=15,26=3/3(2);
 2/9=110/2;
 99//99;
 2/9=110/2;
 3/5=1,6=6,7=111,11=2,25=1,30=1,71=1,74=-5/1,2,3;
 4/5=5,16=3,69=1/1;
 5/5=2,38=5/2;
 7//1,2,3,16;
 1/7=10,18=20,19=15,26=3/3(-5);
 2/9=110/2;
 6/7=2,8=2,9=2,10=2,19=2,28=1/1;
 99/9=1/99;
 -------
 Energy:
 -------
 Symbolic Z-matrix:
 Charge = -1 Multiplicity = 2
 N                     1.21471  -1.73375   0.05954 
 C                    -0.20886  -1.80818  -0.01906 
 C                     1.68654  -0.42953  -0.01969 
 C                     0.59708   0.40957  -0.13096 
 C                    -0.59708  -0.40957  -0.13096 
 C                    -1.68654   0.42953  -0.0197 
 C                     0.20886   1.80818  -0.01906 
 N                    -1.21471   1.73375   0.05954 
 O                    -0.83083  -2.86149  -0.00224 
 O                     0.83083   2.86149  -0.00224 
 H                    -1.79105   2.55862  -0.03699 
 H                     1.79105  -2.55863  -0.03699 
 C                    -6.04934  -1.39737  -1.21805 
 C                    -5.12971  -0.61062  -0.51532 
 C                    -3.74759  -0.74665  -0.77909 
 C                    -3.2634   -1.63698  -1.73661 
 C                    -4.19893  -2.41002  -2.42591 
 C                    -5.57607  -2.29737  -2.17123 
 H                    -7.11424  -1.30394  -1.02658 
 H                    -2.20506  -1.75082  -1.92705 
 H                    -3.84784  -3.11989  -3.16846 
 H                    -6.27596  -2.91769  -2.72255 
 N                    -3.04114   0.17702   0.03143 
 C                    -3.98225   0.88373   0.8183 
 C                    -5.27877   0.41672   0.49877 
 C                    -3.77163   1.84114   1.81455 
 C                    -6.38842   0.94744   1.16577 
 C                    -4.89478   2.35791   2.46471 
 H                    -2.77686   2.16467   2.09822 
 C                    -6.19076   1.92382   2.14147 
 H                    -7.38926   0.59686   0.93189 
 H                    -4.75636   3.10387   3.24132 
 H                    -7.04349   2.34424   2.66541 
 C                     6.38842  -0.94745   1.16575 
 C                     5.27878  -0.41673   0.49876 
 C                     3.98226  -0.88373   0.8183 
 C                     3.77164  -1.84114   1.81455 
 C                     4.89479  -2.35791   2.4647 
 C                     6.19077  -1.92383   2.14146 
 H                     7.38926  -0.59686   0.93187 
 H                     2.77687  -2.16467   2.09823 
 H                     4.75638  -3.10388   3.24131 
 H                     7.0435   -2.34425   2.66538 
 N                     3.04114  -0.17702   0.03144 
 C                     3.74758   0.74665  -0.77908 
 C                     5.12971   0.61062  -0.51532 
 C                     3.26339   1.63699  -1.73659 
 C                     6.04934   1.39737  -1.21805 
 C                     4.19891   2.41003  -2.4259 
 H                     2.20504   1.75083  -1.92702 
 C                     5.57605   2.29738  -2.17122 
 H                     7.11424   1.30394  -1.02659 
 H                     3.84782   3.1199   -3.16844 
 H                     6.27595   2.9177   -2.72255 
 

 GradGradGradGradGradGradGradGradGradGradGradGradGradGradGradGradGradGrad
 Berny optimization.
 Initialization pass.
                           ----------------------------
                           !    Initial Parameters    !
                           ! (Angstroms and Degrees)  !
 --------------------------                            --------------------------
 ! Name  Definition              Value          Derivative Info.                !
 --------------------------------------------------------------------------------
 ! R1    R(1,2)                  1.4277         estimate D2E/DX2                !
 ! R2    R(1,3)                  1.3892         estimate D2E/DX2                !
 ! R3    R(1,12)                 1.0109         estimate D2E/DX2                !
 ! R4    R(2,5)                  1.4558         estimate D2E/DX2                !
 ! R5    R(2,9)                  1.2233         estimate D2E/DX2                !
 ! R6    R(3,4)                  1.3796         estimate D2E/DX2                !
 ! R7    R(3,44)                 1.3789         estimate D2E/DX2                !
 ! R8    R(4,5)                  1.4481         estimate D2E/DX2                !
 ! R9    R(4,7)                  1.4558         estimate D2E/DX2                !
 ! R10   R(5,6)                  1.3796         estimate D2E/DX2                !
 ! R11   R(6,8)                  1.3892         estimate D2E/DX2                !
 ! R12   R(6,23)                 1.3789         estimate D2E/DX2                !
 ! R13   R(7,8)                  1.4277         estimate D2E/DX2                !
 ! R14   R(7,10)                 1.2233         estimate D2E/DX2                !
 ! R15   R(8,11)                 1.0109         estimate D2E/DX2                !
 ! R16   R(13,14)                1.3995         estimate D2E/DX2                !
 ! R17   R(13,18)                1.3938         estimate D2E/DX2                !
 ! R18   R(13,19)                1.086          estimate D2E/DX2                !
 ! R19   R(14,15)                1.4136         estimate D2E/DX2                !
 ! R20   R(14,25)                1.4512         estimate D2E/DX2                !
 ! R21   R(15,16)                1.3943         estimate D2E/DX2                !
 ! R22   R(15,23)                1.4175         estimate D2E/DX2                !
 ! R23   R(16,17)                1.3957         estimate D2E/DX2                !
 ! R24   R(16,20)                1.0814         estimate D2E/DX2                !
 ! R25   R(17,18)                1.405          estimate D2E/DX2                !
 ! R26   R(17,21)                1.0856         estimate D2E/DX2                !
 ! R27   R(18,22)                1.0856         estimate D2E/DX2                !
 ! R28   R(23,24)                1.4157         estimate D2E/DX2                !
 ! R29   R(24,25)                1.4146         estimate D2E/DX2                !
 ! R30   R(24,26)                1.3977         estimate D2E/DX2                !
 ! R31   R(25,27)                1.3992         estimate D2E/DX2                !
 ! R32   R(26,28)                1.3969         estimate D2E/DX2                !
 ! R33   R(26,29)                1.0838         estimate D2E/DX2                !
 ! R34   R(27,30)                1.3944         estimate D2E/DX2                !
 ! R35   R(27,31)                1.086          estimate D2E/DX2                !
 ! R36   R(28,30)                1.4044         estimate D2E/DX2                !
 ! R37   R(28,32)                1.0857         estimate D2E/DX2                !
 ! R38   R(30,33)                1.0855         estimate D2E/DX2                !
 ! R39   R(34,35)                1.3992         estimate D2E/DX2                !
 ! R40   R(34,39)                1.3944         estimate D2E/DX2                !
 ! R41   R(34,40)                1.086          estimate D2E/DX2                !
 ! R42   R(35,36)                1.4146         estimate D2E/DX2                !
 ! R43   R(35,46)                1.4512         estimate D2E/DX2                !
 ! R44   R(36,37)                1.3977         estimate D2E/DX2                !
 ! R45   R(36,44)                1.4157         estimate D2E/DX2                !
 ! R46   R(37,38)                1.3969         estimate D2E/DX2                !
 ! R47   R(37,41)                1.0838         estimate D2E/DX2                !
 ! R48   R(38,39)                1.4044         estimate D2E/DX2                !
 ! R49   R(38,42)                1.0857         estimate D2E/DX2                !
 ! R50   R(39,43)                1.0855         estimate D2E/DX2                !
 ! R51   R(44,45)                1.4175         estimate D2E/DX2                !
 ! R52   R(45,46)                1.4136         estimate D2E/DX2                !
 ! R53   R(45,47)                1.3943         estimate D2E/DX2                !
 ! R54   R(46,48)                1.3995         estimate D2E/DX2                !
 ! R55   R(47,49)                1.3957         estimate D2E/DX2                !
 ! R56   R(47,50)                1.0814         estimate D2E/DX2                !
 ! R57   R(48,51)                1.3938         estimate D2E/DX2                !
 ! R58   R(48,52)                1.086          estimate D2E/DX2                !
 ! R59   R(49,51)                1.405          estimate D2E/DX2                !
 ! R60   R(49,53)                1.0856         estimate D2E/DX2                !
 ! R61   R(51,54)                1.0856         estimate D2E/DX2                !
 ! A1    A(2,1,3)              112.6109         estimate D2E/DX2                !
 ! A2    A(2,1,12)             121.3787         estimate D2E/DX2                !
 ! A3    A(3,1,12)             124.5398         estimate D2E/DX2                !
 ! A4    A(1,2,5)              102.7118         estimate D2E/DX2                !
 ! A5    A(1,2,9)              123.4414         estimate D2E/DX2                !
 ! A6    A(5,2,9)              133.8409         estimate D2E/DX2                !
 ! A7    A(1,3,4)              107.9018         estimate D2E/DX2                !
 ! A8    A(1,3,44)             120.23           estimate D2E/DX2                !
 ! A9    A(4,3,44)             131.8651         estimate D2E/DX2                !
 ! A10   A(3,4,5)              107.8877         estimate D2E/DX2                !
 ! A11   A(3,4,7)              142.0635         estimate D2E/DX2                !
 ! A12   A(5,4,7)              108.8772         estimate D2E/DX2                !
 ! A13   A(2,5,4)              108.8772         estimate D2E/DX2                !
 ! A14   A(2,5,6)              142.0636         estimate D2E/DX2                !
 ! A15   A(4,5,6)              107.8877         estimate D2E/DX2                !
 ! A16   A(5,6,8)              107.9018         estimate D2E/DX2                !
 ! A17   A(5,6,23)             131.8653         estimate D2E/DX2                !
 ! A18   A(8,6,23)             120.2298         estimate D2E/DX2                !
 ! A19   A(4,7,8)              102.7118         estimate D2E/DX2                !
 ! A20   A(4,7,10)             133.8409         estimate D2E/DX2                !
 ! A21   A(8,7,10)             123.4414         estimate D2E/DX2                !
 ! A22   A(6,8,7)              112.6109         estimate D2E/DX2                !
 ! A23   A(6,8,11)             124.5398         estimate D2E/DX2                !
 ! A24   A(7,8,11)             121.3788         estimate D2E/DX2                !
 ! A25   A(14,13,18)           118.9006         estimate D2E/DX2                !
 ! A26   A(14,13,19)           120.4949         estimate D2E/DX2                !
 ! A27   A(18,13,19)           120.6038         estimate D2E/DX2                !
 ! A28   A(13,14,15)           119.649          estimate D2E/DX2                !
 ! A29   A(13,14,25)           132.9507         estimate D2E/DX2                !
 ! A30   A(15,14,25)           107.3936         estimate D2E/DX2                !
 ! A31   A(14,15,16)           121.9462         estimate D2E/DX2                !
 ! A32   A(14,15,23)           108.5348         estimate D2E/DX2                !
 ! A33   A(16,15,23)           129.4748         estimate D2E/DX2                !
 ! A34   A(15,16,17)           117.3928         estimate D2E/DX2                !
 ! A35   A(15,16,20)           121.874          estimate D2E/DX2                !
 ! A36   A(17,16,20)           120.7139         estimate D2E/DX2                !
 ! A37   A(16,17,18)           121.5384         estimate D2E/DX2                !
 ! A38   A(16,17,21)           118.8949         estimate D2E/DX2                !
 ! A39   A(18,17,21)           119.5641         estimate D2E/DX2                !
 ! A40   A(13,18,17)           120.5688         estimate D2E/DX2                !
 ! A41   A(13,18,22)           119.825          estimate D2E/DX2                !
 ! A42   A(17,18,22)           119.6062         estimate D2E/DX2                !
 ! A43   A(6,23,15)            125.997          estimate D2E/DX2                !
 ! A44   A(6,23,24)            125.6084         estimate D2E/DX2                !
 ! A45   A(15,23,24)           108.1677         estimate D2E/DX2                !
 ! A46   A(23,24,25)           108.5976         estimate D2E/DX2                !
 ! A47   A(23,24,26)           129.6383         estimate D2E/DX2                !
 ! A48   A(25,24,26)           121.685          estimate D2E/DX2                !
 ! A49   A(14,25,24)           107.3017         estimate D2E/DX2                !
 ! A50   A(14,25,27)           133.0837         estimate D2E/DX2                !
 ! A51   A(24,25,27)           119.6            estimate D2E/DX2                !
 ! A52   A(24,26,28)           117.6465         estimate D2E/DX2                !
 ! A53   A(24,26,29)           121.9607         estimate D2E/DX2                !
 ! A54   A(28,26,29)           120.3796         estimate D2E/DX2                !
 ! A55   A(25,27,30)           119.1251         estimate D2E/DX2                !
 ! A56   A(25,27,31)           120.3827         estimate D2E/DX2                !
 ! A57   A(30,27,31)           120.4902         estimate D2E/DX2                !
 ! A58   A(26,28,30)           121.365          estimate D2E/DX2                !
 ! A59   A(26,28,32)           118.9871         estimate D2E/DX2                !
 ! A60   A(30,28,32)           119.6457         estimate D2E/DX2                !
 ! A61   A(27,30,28)           120.5483         estimate D2E/DX2                !
 ! A62   A(27,30,33)           119.8382         estimate D2E/DX2                !
 ! A63   A(28,30,33)           119.6091         estimate D2E/DX2                !
 ! A64   A(35,34,39)           119.1252         estimate D2E/DX2                !
 ! A65   A(35,34,40)           120.3826         estimate D2E/DX2                !
 ! A66   A(39,34,40)           120.4902         estimate D2E/DX2                !
 ! A67   A(34,35,36)           119.6            estimate D2E/DX2                !
 ! A68   A(34,35,46)           133.0837         estimate D2E/DX2                !
 ! A69   A(36,35,46)           107.3016         estimate D2E/DX2                !
 ! A70   A(35,36,37)           121.685          estimate D2E/DX2                !
 ! A71   A(35,36,44)           108.5975         estimate D2E/DX2                !
 ! A72   A(37,36,44)           129.6383         estimate D2E/DX2                !
 ! A73   A(36,37,38)           117.6465         estimate D2E/DX2                !
 ! A74   A(36,37,41)           121.9607         estimate D2E/DX2                !
 ! A75   A(38,37,41)           120.3796         estimate D2E/DX2                !
 ! A76   A(37,38,39)           121.365          estimate D2E/DX2                !
 ! A77   A(37,38,42)           118.987          estimate D2E/DX2                !
 ! A78   A(39,38,42)           119.6457         estimate D2E/DX2                !
 ! A79   A(34,39,38)           120.5483         estimate D2E/DX2                !
 ! A80   A(34,39,43)           119.8383         estimate D2E/DX2                !
 ! A81   A(38,39,43)           119.609          estimate D2E/DX2                !
 ! A82   A(3,44,36)            125.6085         estimate D2E/DX2                !
 ! A83   A(3,44,45)            125.9968         estimate D2E/DX2                !
 ! A84   A(36,44,45)           108.1677         estimate D2E/DX2                !
 ! A85   A(44,45,46)           108.5348         estimate D2E/DX2                !
 ! A86   A(44,45,47)           129.4748         estimate D2E/DX2                !
 ! A87   A(46,45,47)           121.9462         estimate D2E/DX2                !
 ! A88   A(35,46,45)           107.3937         estimate D2E/DX2                !
 ! A89   A(35,46,48)           132.9507         estimate D2E/DX2                !
 ! A90   A(45,46,48)           119.649          estimate D2E/DX2                !
 ! A91   A(45,47,49)           117.3928         estimate D2E/DX2                !
 ! A92   A(45,47,50)           121.874          estimate D2E/DX2                !
 ! A93   A(49,47,50)           120.7139         estimate D2E/DX2                !
 ! A94   A(46,48,51)           118.9006         estimate D2E/DX2                !
 ! A95   A(46,48,52)           120.4949         estimate D2E/DX2                !
 ! A96   A(51,48,52)           120.6038         estimate D2E/DX2                !
 ! A97   A(47,49,51)           121.5384         estimate D2E/DX2                !
 ! A98   A(47,49,53)           118.8949         estimate D2E/DX2                !
 ! A99   A(51,49,53)           119.5641         estimate D2E/DX2                !
 ! A100  A(48,51,49)           120.5688         estimate D2E/DX2                !
 ! A101  A(48,51,54)           119.8251         estimate D2E/DX2                !
 ! A102  A(49,51,54)           119.6061         estimate D2E/DX2                !
 ! D1    D(3,1,2,5)             -1.0546         estimate D2E/DX2                !
 ! D2    D(3,1,2,9)            178.1667         estimate D2E/DX2                !
 ! D3    D(12,1,2,5)          -167.8134         estimate D2E/DX2                !
 ! D4    D(12,1,2,9)            11.4078         estimate D2E/DX2                !
 ! D5    D(2,1,3,4)              0.9814         estimate D2E/DX2                !
 ! D6    D(2,1,3,44)          -179.5833         estimate D2E/DX2                !
 ! D7    D(12,1,3,4)           167.2485         estimate D2E/DX2                !
 ! D8    D(12,1,3,44)          -13.3161         estimate D2E/DX2                !
 ! D9    D(1,2,5,4)              0.7366         estimate D2E/DX2                !
 ! D10   D(1,2,5,6)           -164.4275         estimate D2E/DX2                !
 ! D11   D(9,2,5,4)           -178.3625         estimate D2E/DX2                !
 ! D12   D(9,2,5,6)             16.4735         estimate D2E/DX2                !
 ! D13   D(1,3,4,5)             -0.4513         estimate D2E/DX2                !
 ! D14   D(1,3,4,7)            164.7993         estimate D2E/DX2                !
 ! D15   D(44,3,4,5)          -179.7962         estimate D2E/DX2                !
 ! D16   D(44,3,4,7)           -14.5456         estimate D2E/DX2                !
 ! D17   D(1,3,44,36)          -36.0814         estimate D2E/DX2                !
 ! D18   D(1,3,44,45)          137.7887         estimate D2E/DX2                !
 ! D19   D(4,3,44,36)          143.197          estimate D2E/DX2                !
 ! D20   D(4,3,44,45)          -42.9329         estimate D2E/DX2                !
 ! D21   D(3,4,5,2)             -0.202          estimate D2E/DX2                !
 ! D22   D(3,4,5,6)            170.2768         estimate D2E/DX2                !
 ! D23   D(7,4,5,2)           -170.6805         estimate D2E/DX2                !
 ! D24   D(7,4,5,6)             -0.2017         estimate D2E/DX2                !
 ! D25   D(3,4,7,8)           -164.4272         estimate D2E/DX2                !
 ! D26   D(3,4,7,10)            16.4739         estimate D2E/DX2                !
 ! D27   D(5,4,7,8)              0.7366         estimate D2E/DX2                !
 ! D28   D(5,4,7,10)          -178.3623         estimate D2E/DX2                !
 ! D29   D(2,5,6,8)            164.7993         estimate D2E/DX2                !
 ! D30   D(2,5,6,23)           -14.5454         estimate D2E/DX2                !
 ! D31   D(4,5,6,8)             -0.4516         estimate D2E/DX2                !
 ! D32   D(4,5,6,23)          -179.7962         estimate D2E/DX2                !
 ! D33   D(5,6,8,7)              0.9817         estimate D2E/DX2                !
 ! D34   D(5,6,8,11)           167.249          estimate D2E/DX2                !
 ! D35   D(23,6,8,7)          -179.5832         estimate D2E/DX2                !
 ! D36   D(23,6,8,11)          -13.3159         estimate D2E/DX2                !
 ! D37   D(5,6,23,15)          -42.933          estimate D2E/DX2                !
 ! D38   D(5,6,23,24)          143.1963         estimate D2E/DX2                !
 ! D39   D(8,6,23,15)          137.7888         estimate D2E/DX2                !
 ! D40   D(8,6,23,24)          -36.0819         estimate D2E/DX2                !
 ! D41   D(4,7,8,6)             -1.0548         estimate D2E/DX2                !
 ! D42   D(4,7,8,11)          -167.8137         estimate D2E/DX2                !
 ! D43   D(10,7,8,6)           178.1664         estimate D2E/DX2                !
 ! D44   D(10,7,8,11)           11.4074         estimate D2E/DX2                !
 ! D45   D(18,13,14,15)         -0.2812         estimate D2E/DX2                !
 ! D46   D(18,13,14,25)        178.6479         estimate D2E/DX2                !
 ! D47   D(19,13,14,15)       -179.9838         estimate D2E/DX2                !
 ! D48   D(19,13,14,25)         -1.0548         estimate D2E/DX2                !
 ! D49   D(14,13,18,17)         -0.2125         estimate D2E/DX2                !
 ! D50   D(14,13,18,22)        179.7773         estimate D2E/DX2                !
 ! D51   D(19,13,18,17)        179.4898         estimate D2E/DX2                !
 ! D52   D(19,13,18,22)         -0.5204         estimate D2E/DX2                !
 ! D53   D(13,14,15,16)          0.7343         estimate D2E/DX2                !
 ! D54   D(13,14,15,23)        178.5281         estimate D2E/DX2                !
 ! D55   D(25,14,15,16)       -178.4443         estimate D2E/DX2                !
 ! D56   D(25,14,15,23)         -0.6505         estimate D2E/DX2                !
 ! D57   D(13,14,25,24)       -178.6675         estimate D2E/DX2                !
 ! D58   D(13,14,25,27)          2.778          estimate D2E/DX2                !
 ! D59   D(15,14,25,24)          0.3571         estimate D2E/DX2                !
 ! D60   D(15,14,25,27)       -178.1973         estimate D2E/DX2                !
 ! D61   D(14,15,16,17)         -0.6536         estimate D2E/DX2                !
 ! D62   D(14,15,16,20)       -179.0668         estimate D2E/DX2                !
 ! D63   D(23,15,16,17)       -177.9433         estimate D2E/DX2                !
 ! D64   D(23,15,16,20)          3.6434         estimate D2E/DX2                !
 ! D65   D(14,15,23,6)        -174.0575         estimate D2E/DX2                !
 ! D66   D(14,15,23,24)          0.7005         estimate D2E/DX2                !
 ! D67   D(16,15,23,6)           3.5171         estimate D2E/DX2                !
 ! D68   D(16,15,23,24)        178.2751         estimate D2E/DX2                !
 ! D69   D(15,16,17,18)          0.1447         estimate D2E/DX2                !
 ! D70   D(15,16,17,21)       -179.2745         estimate D2E/DX2                !
 ! D71   D(20,16,17,18)        178.5774         estimate D2E/DX2                !
 ! D72   D(20,16,17,21)         -0.8418         estimate D2E/DX2                !
 ! D73   D(16,17,18,13)          0.2865         estimate D2E/DX2                !
 ! D74   D(16,17,18,22)       -179.7033         estimate D2E/DX2                !
 ! D75   D(21,17,18,13)        179.7019         estimate D2E/DX2                !
 ! D76   D(21,17,18,22)         -0.2879         estimate D2E/DX2                !
 ! D77   D(6,23,24,25)         174.3104         estimate D2E/DX2                !
 ! D78   D(6,23,24,26)          -8.9412         estimate D2E/DX2                !
 ! D79   D(15,23,24,25)         -0.4733         estimate D2E/DX2                !
 ! D80   D(15,23,24,26)        176.2751         estimate D2E/DX2                !
 ! D81   D(23,24,25,14)          0.0711         estimate D2E/DX2                !
 ! D82   D(23,24,25,27)        178.8569         estimate D2E/DX2                !
 ! D83   D(26,24,25,14)       -176.9867         estimate D2E/DX2                !
 ! D84   D(26,24,25,27)          1.7992         estimate D2E/DX2                !
 ! D85   D(23,24,26,28)       -178.2658         estimate D2E/DX2                !
 ! D86   D(23,24,26,29)          0.4132         estimate D2E/DX2                !
 ! D87   D(25,24,26,28)         -1.8878         estimate D2E/DX2                !
 ! D88   D(25,24,26,29)        176.7912         estimate D2E/DX2                !
 ! D89   D(14,25,27,30)        178.0161         estimate D2E/DX2                !
 ! D90   D(14,25,27,31)         -1.469          estimate D2E/DX2                !
 ! D91   D(24,25,27,30)         -0.3966         estimate D2E/DX2                !
 ! D92   D(24,25,27,31)       -179.8818         estimate D2E/DX2                !
 ! D93   D(24,26,28,30)          0.6328         estimate D2E/DX2                !
 ! D94   D(24,26,28,32)       -179.9192         estimate D2E/DX2                !
 ! D95   D(29,26,28,30)       -178.0681         estimate D2E/DX2                !
 ! D96   D(29,26,28,32)          1.3799         estimate D2E/DX2                !
 ! D97   D(25,27,30,28)         -0.8285         estimate D2E/DX2                !
 ! D98   D(25,27,30,33)        179.9369         estimate D2E/DX2                !
 ! D99   D(31,27,30,28)        178.6561         estimate D2E/DX2                !
 ! D100  D(31,27,30,33)         -0.5785         estimate D2E/DX2                !
 ! D101  D(26,28,30,27)          0.7188         estimate D2E/DX2                !
 ! D102  D(26,28,30,33)        179.9552         estimate D2E/DX2                !
 ! D103  D(32,28,30,27)       -178.7256         estimate D2E/DX2                !
 ! D104  D(32,28,30,33)          0.5108         estimate D2E/DX2                !
 ! D105  D(39,34,35,36)         -0.3965         estimate D2E/DX2                !
 ! D106  D(39,34,35,46)        178.016          estimate D2E/DX2                !
 ! D107  D(40,34,35,36)       -179.8817         estimate D2E/DX2                !
 ! D108  D(40,34,35,46)         -1.4692         estimate D2E/DX2                !
 ! D109  D(35,34,39,38)         -0.8286         estimate D2E/DX2                !
 ! D110  D(35,34,39,43)        179.9369         estimate D2E/DX2                !
 ! D111  D(40,34,39,38)        178.656          estimate D2E/DX2                !
 ! D112  D(40,34,39,43)         -0.5785         estimate D2E/DX2                !
 ! D113  D(34,35,36,37)          1.7992         estimate D2E/DX2                !
 ! D114  D(34,35,36,44)        178.8568         estimate D2E/DX2                !
 ! D115  D(46,35,36,37)       -176.9864         estimate D2E/DX2                !
 ! D116  D(46,35,36,44)          0.0711         estimate D2E/DX2                !
 ! D117  D(34,35,46,45)       -178.1971         estimate D2E/DX2                !
 ! D118  D(34,35,46,48)          2.778          estimate D2E/DX2                !
 ! D119  D(36,35,46,45)          0.3572         estimate D2E/DX2                !
 ! D120  D(36,35,46,48)       -178.6676         estimate D2E/DX2                !
 ! D121  D(35,36,37,38)         -1.8879         estimate D2E/DX2                !
 ! D122  D(35,36,37,41)        176.7911         estimate D2E/DX2                !
 ! D123  D(44,36,37,38)       -178.2658         estimate D2E/DX2                !
 ! D124  D(44,36,37,41)          0.4133         estimate D2E/DX2                !
 ! D125  D(35,36,44,3)         174.3096         estimate D2E/DX2                !
 ! D126  D(35,36,44,45)         -0.4735         estimate D2E/DX2                !
 ! D127  D(37,36,44,3)          -8.942          estimate D2E/DX2                !
 ! D128  D(37,36,44,45)        176.2748         estimate D2E/DX2                !
 ! D129  D(36,37,38,39)          0.6328         estimate D2E/DX2                !
 ! D130  D(36,37,38,42)       -179.9192         estimate D2E/DX2                !
 ! D131  D(41,37,38,39)       -178.0681         estimate D2E/DX2                !
 ! D132  D(41,37,38,42)          1.3799         estimate D2E/DX2                !
 ! D133  D(37,38,39,34)          0.7189         estimate D2E/DX2                !
 ! D134  D(37,38,39,43)        179.9552         estimate D2E/DX2                !
 ! D135  D(42,38,39,34)       -178.7255         estimate D2E/DX2                !
 ! D136  D(42,38,39,43)          0.5108         estimate D2E/DX2                !
 ! D137  D(3,44,45,46)        -174.0568         estimate D2E/DX2                !
 ! D138  D(3,44,45,47)           3.5179         estimate D2E/DX2                !
 ! D139  D(36,44,45,46)          0.7007         estimate D2E/DX2                !
 ! D140  D(36,44,45,47)        178.2754         estimate D2E/DX2                !
 ! D141  D(44,45,46,35)         -0.6506         estimate D2E/DX2                !
 ! D142  D(44,45,46,48)        178.5281         estimate D2E/DX2                !
 ! D143  D(47,45,46,35)       -178.4445         estimate D2E/DX2                !
 ! D144  D(47,45,46,48)          0.7342         estimate D2E/DX2                !
 ! D145  D(44,45,47,49)       -177.9433         estimate D2E/DX2                !
 ! D146  D(44,45,47,50)          3.6434         estimate D2E/DX2                !
 ! D147  D(46,45,47,49)         -0.6534         estimate D2E/DX2                !
 ! D148  D(46,45,47,50)       -179.0667         estimate D2E/DX2                !
 ! D149  D(35,46,48,51)        178.6481         estimate D2E/DX2                !
 ! D150  D(35,46,48,52)         -1.0546         estimate D2E/DX2                !
 ! D151  D(45,46,48,51)         -0.2811         estimate D2E/DX2                !
 ! D152  D(45,46,48,52)       -179.9838         estimate D2E/DX2                !
 ! D153  D(45,47,49,51)          0.1446         estimate D2E/DX2                !
 ! D154  D(45,47,49,53)       -179.2745         estimate D2E/DX2                !
 ! D155  D(50,47,49,51)        178.5773         estimate D2E/DX2                !
 ! D156  D(50,47,49,53)         -0.8418         estimate D2E/DX2                !
 ! D157  D(46,48,51,49)         -0.2126         estimate D2E/DX2                !
 ! D158  D(46,48,51,54)        179.7773         estimate D2E/DX2                !
 ! D159  D(52,48,51,49)        179.4898         estimate D2E/DX2                !
 ! D160  D(52,48,51,54)         -0.5203         estimate D2E/DX2                !
 ! D161  D(47,49,51,48)          0.2866         estimate D2E/DX2                !
 ! D162  D(47,49,51,54)       -179.7033         estimate D2E/DX2                !
 ! D163  D(53,49,51,48)        179.7019         estimate D2E/DX2                !
 ! D164  D(53,49,51,54)         -0.288          estimate D2E/DX2                !
 --------------------------------------------------------------------------------
 Trust Radius=3.00D-01 FncErr=1.00D-07 GrdErr=1.00D-06 EigMax=2.50D+02 EigMin=1.00D-04
 Number of steps in this run=    324 maximum allowed number of steps=    324.
 GradGradGradGradGradGradGradGradGradGradGradGradGradGradGradGradGradGrad

 Stoichiometry    C30H18N4O2(1-,2)
 Framework group  C1[X(C30H18N4O2)]
 Deg. of freedom   156
 Full point group                 C1      NOp   1
 Largest Abelian subgroup         C1      NOp   1
 Largest concise Abelian subgroup C1      NOp   1
                         Standard orientation:                         
 ---------------------------------------------------------------------
 Center     Atomic      Atomic             Coordinates (Angstroms)
 Number     Number       Type             X           Y           Z
 ---------------------------------------------------------------------
      1          7           0        1.214708   -1.733752    0.059538
      2          6           0       -0.208860   -1.808183   -0.019058
      3          6           0        1.686543   -0.429531   -0.019690
      4          6           0        0.597077    0.409569   -0.130964
      5          6           0       -0.597076   -0.409572   -0.130964
      6          6           0       -1.686542    0.429529   -0.019695
      7          6           0        0.208861    1.808180   -0.019058
      8          7           0       -1.214707    1.733749    0.059537
      9          8           0       -0.830830   -2.861488   -0.002236
     10          8           0        0.830831    2.861485   -0.002238
     11          1           0       -1.791051    2.558624   -0.036988
     12          1           0        1.791051   -2.558627   -0.036991
     13          6           0       -6.049342   -1.397373   -1.218045
     14          6           0       -5.129714   -0.610617   -0.515315
     15          6           0       -3.747587   -0.746646   -0.779090
     16          6           0       -3.263401   -1.636978   -1.736608
     17          6           0       -4.198929   -2.410015   -2.425911
     18          6           0       -5.576066   -2.297373   -2.171225
     19          1           0       -7.114243   -1.303944   -1.026578
     20          1           0       -2.205057   -1.750816   -1.927048
     21          1           0       -3.847837   -3.119885   -3.168462
     22          1           0       -6.275963   -2.917688   -2.722545
     23          7           0       -3.041143    0.177021    0.031432
     24          6           0       -3.982253    0.883729    0.818299
     25          6           0       -5.278774    0.416722    0.498772
     26          6           0       -3.771634    1.841136    1.814549
     27          6           0       -6.388416    0.947441    1.165766
     28          6           0       -4.894778    2.357905    2.464706
     29          1           0       -2.776858    2.164668    2.098217
     30          6           0       -6.190755    1.923822    2.141473
     31          1           0       -7.389258    0.596855    0.931892
     32          1           0       -4.756360    3.103872    3.241317
     33          1           0       -7.043486    2.344243    2.665408
     34          6           0        6.388423   -0.947448    1.165749
     35          6           0        5.278777   -0.416726    0.498763
     36          6           0        3.982257   -0.883731    0.818299
     37          6           0        3.771644   -1.841138    1.814551
     38          6           0        4.894792   -2.357910    2.464698
     39          6           0        6.190768   -1.923830    2.141455
     40          1           0        7.389264   -0.596863    0.931868
     41          1           0        2.776869   -2.164668    2.098227
     42          1           0        4.756378   -3.103877    3.241310
     43          1           0        7.043501   -2.344254    2.665383
     44          7           0        3.041143   -0.177019    0.031440
     45          6           0        3.747582    0.746650   -0.779082
     46          6           0        5.129711    0.610616   -0.515319
     47          6           0        3.263390    1.636990   -1.736590
     48          6           0        6.049335    1.397374   -1.218053
     49          6           0        4.198914    2.410028   -2.425897
     50          1           0        2.205044    1.750833   -1.927019
     51          6           0        5.576053    2.297381   -2.171223
     52          1           0        7.114238    1.303942   -1.026595
     53          1           0        3.847817    3.119903   -3.168440
     54          1           0        6.275946    2.917697   -2.722546
 ---------------------------------------------------------------------
 Rotational constants (GHZ):           0.2354867           0.0567827           0.0542385
 Standard basis: 6-31+G(d,p) (6D, 7F)
 There are   774 symmetry adapted cartesian basis functions of A   symmetry.
 There are   774 symmetry adapted basis functions of A   symmetry.
   774 basis functions,  1278 primitive gaussians,   774 cartesian basis functions
   122 alpha electrons      121 beta electrons
       nuclear repulsion energy      3478.8857126255 Hartrees.
 NAtoms=   54 NActive=   54 NUniq=   54 SFac= 1.00D+00 NAtFMM=   60 NAOKFM=F Big=F
 Integral buffers will be    131072 words long.
 Raffenetti 2 integral format.
 Two-electron integral symmetry is turned on.
 One-electron integrals computed using PRISM.
 NBasis=   774 RedAO= T EigKep=  1.35D-06  NBF=   774
 NBsUse=   762 1.00D-06 EigRej=  8.37D-07 NBFU=   762
 ExpMin= 4.38D-02 ExpMax= 5.48D+03 ExpMxC= 8.25D+02 IAcc=3 IRadAn=         5 AccDes= 0.00D+00
 Harris functional with IExCor=  402 and IRadAn=       5 diagonalized for initial guess.
 HarFok:  IExCor=  402 AccDes= 0.00D+00 IRadAn=         5 IDoV= 1 UseB2=F ITyADJ=14
 ICtDFT=  3500011 ScaDFX=  1.000000  1.000000  1.000000  1.000000
 FoFCou: FMM=F IPFlag=           0 FMFlag=      100000 FMFlg1=           0
         NFxFlg=           0 DoJE=T BraDBF=F KetDBF=T FulRan=T
         wScrn=  0.000000 ICntrl=       500 IOpCl=  0 I1Cent=   200000004 NGrid=           0
         NMat0=    1 NMatS0=      1 NMatT0=    0 NMatD0=    1 NMtDS0=    0 NMtDT0=    0
 Petite list used in FoFCou.
 Initial guess <Sx>= 0.0000 <Sy>= 0.0000 <Sz>= 0.5000 <S**2>= 0.7500 S= 0.5000
 Requested convergence on RMS density matrix=1.00D-08 within 128 cycles.
 Requested convergence on MAX density matrix=1.00D-06.
 Requested convergence on             energy=1.00D-06.
 No special actions if energy rises.
 Restarting incremental Fock formation.
 SCF Done:  E(UB3LYP) =  -1523.66201245     A.U. after   24 cycles
            NFock= 24  Conv=0.57D-08     -V/T= 2.0093
 <Sx>= 0.0000 <Sy>= 0.0000 <Sz>= 0.5000 <S**2>= 0.7610 S= 0.5055
 <L.S>=  0.00000000000    
 Annihilation of the first spin contaminant:
 S**2 before annihilation     0.7610,   after     0.7501

 **********************************************************************

            Population analysis using the SCF Density.

 **********************************************************************

 Orbital symmetries:
 Alpha Orbitals:
       Occupied  (A) (A) (A) (A) (A) (A) (A) (A) (A) (A) (A) (A)
                 (A) (A) (A) (A) (A) (A) (A) (A) (A) (A) (A) (A)
                 (A) (A) (A) (A) (A) (A) (A) (A) (A) (A) (A) (A)
                 (A) (A) (A) (A) (A) (A) (A) (A) (A) (A) (A) (A)
                 (A) (A) (A) (A) (A) (A) (A) (A) (A) (A) (A) (A)
                 (A) (A) (A) (A) (A) (A) (A) (A) (A) (A) (A) (A)
                 (A) (A) (A) (A) (A) (A) (A) (A) (A) (A) (A) (A)
                 (A) (A) (A) (A) (A) (A) (A) (A) (A) (A) (A) (A)
                 (A) (A) (A) (A) (A) (A) (A) (A) (A) (A) (A) (A)
                 (A) (A) (A) (A) (A) (A) (A) (A) (A) (A) (A) (A)
                 (A) (A)
       Virtual   (A) (A) (A) (A) (A) (A) (A) (A) (A) (A) (A) (A)
                 (A) (A) (A) (A) (A) (A) (A) (A) (A) (A) (A) (A)
                 (A) (A) (A) (A) (A) (A) (A) (A) (A) (A) (A) (A)
                 (A) (A) (A) (A) (A) (A) (A) (A) (A) (A) (A) (A)
                 (A) (A) (A) (A) (A) (A) (A) (A) (A) (A) (A) (A)
                 (A) (A) (A) (A) (A) (A) (A) (A) (A) (A) (A) (A)
                 (A) (A) (A) (A) (A) (A) (A) (A) (A) (A) (A) (A)
                 (A) (A) (A) (A) (A) (A) (A) (A) (A) (A) (A) (A)
                 (A) (A) (A) (A) (A) (A) (A) (A) (A) (A) (A) (A)
                 (A) (A) (A) (A) (A) (A) (A) (A) (A) (A) (A) (A)
                 (A) (A) (A) (A) (A) (A) (A) (A) (A) (A) (A) (A)
                 (A) (A) (A) (A) (A) (A) (A) (A) (A) (A) (A) (A)
                 (A) (A) (A) (A) (A) (A) (A) (A) (A) (A) (A) (A)
                 (A) (A) (A) (A) (A) (A) (A) (A) (A) (A) (A) (A)
                 (A) (A) (A) (A) (A) (A) (A) (A) (A) (A) (A) (A)
                 (A) (A) (A) (A) (A) (A) (A) (A) (A) (A) (A) (A)
                 (A) (A) (A) (A) (A) (A) (A) (A) (A) (A) (A) (A)
                 (A) (A) (A) (A) (A) (A) (A) (A) (A) (A) (A) (A)
                 (A) (A) (A) (A) (A) (A) (A) (A) (A) (A) (A) (A)
                 (A) (A) (A) (A) (A) (A) (A) (A) (A) (A) (A) (A)
                 (A) (A) (A) (A) (A) (A) (A) (A) (A) (A) (A) (A)
                 (A) (A) (A) (A) (A) (A) (A) (A) (A) (A) (A) (A)
                 (A) (A) (A) (A) (A) (A) (A) (A) (A) (A) (A) (A)
                 (A) (A) (A) (A) (A) (A) (A) (A) (A) (A) (A) (A)
                 (A) (A) (A) (A) (A) (A) (A) (A) (A) (A) (A) (A)
                 (A) (A) (A) (A) (A) (A) (A) (A) (A) (A) (A) (A)
                 (A) (A) (A) (A) (A) (A) (A) (A) (A) (A) (A) (A)
                 (A) (A) (A) (A) (A) (A) (A) (A) (A) (A) (A) (A)
                 (A) (A) (A) (A) (A) (A) (A) (A) (A) (A) (A) (A)
                 (A) (A) (A) (A) (A) (A) (A) (A) (A) (A) (A) (A)
                 (A) (A) (A) (A) (A) (A) (A) (A) (A) (A) (A) (A)
                 (A) (A) (A) (A) (A) (A) (A) (A) (A) (A) (A) (A)
                 (A) (A) (A) (A) (A) (A) (A) (A) (A) (A) (A) (A)
                 (A) (A) (A) (A) (A) (A) (A) (A) (A) (A) (A) (A)
                 (A) (A) (A) (A) (A) (A) (A) (A) (A) (A) (A) (A)
                 (A) (A) (A) (A) (A) (A) (A) (A) (A) (A) (A) (A)
                 (A) (A) (A) (A) (A) (A) (A) (A) (A) (A) (A) (A)
                 (A) (A) (A) (A) (A) (A) (A) (A) (A) (A) (A) (A)
                 (A) (A) (A) (A) (A) (A) (A) (A) (A) (A) (A) (A)
                 (A) (A) (A) (A) (A) (A) (A) (A) (A) (A) (A) (A)
                 (A) (A) (A) (A) (A) (A) (A) (A) (A) (A) (A) (A)
                 (A) (A) (A) (A) (A) (A) (A) (A) (A) (A) (A) (A)
                 (A) (A) (A) (A) (A) (A) (A) (A) (A) (A) (A) (A)
                 (A) (A) (A) (A) (A) (A) (A) (A) (A) (A) (A) (A)
                 (A) (A) (A) (A) (A) (A) (A) (A) (A) (A) (A) (A)
                 (A) (A) (A) (A) (A) (A) (A) (A) (A) (A) (A) (A)
                 (A) (A) (A) (A) (A) (A) (A) (A) (A) (A) (A) (A)
                 (A) (A) (A) (A) (A) (A) (A) (A) (A) (A) (A) (A)
                 (A) (A) (A) (A) (A) (A) (A) (A) (A) (A) (A) (A)
                 (A) (A) (A) (A) (A) (A) (A) (A) (A) (A) (A) (A)
                 (A) (A) (A) (A) (A) (A) (A) (A) (A) (A) (A) (A)
                 (A) (A) (A) (A) (A) (A) (A) (A) (A) (A) (A) (A)
                 (A) (A) (A) (A) (A) (A) (A) (A) (A) (A) (A) (A)
                 (A) (A) (A) (A)
 Beta  Orbitals:
       Occupied  (A) (A) (A) (A) (A) (A) (A) (A) (A) (A) (A) (A)
                 (A) (A) (A) (A) (A) (A) (A) (A) (A) (A) (A) (A)
                 (A) (A) (A) (A) (A) (A) (A) (A) (A) (A) (A) (A)
                 (A) (A) (A) (A) (A) (A) (A) (A) (A) (A) (A) (A)
                 (A) (A) (A) (A) (A) (A) (A) (A) (A) (A) (A) (A)
                 (A) (A) (A) (A) (A) (A) (A) (A) (A) (A) (A) (A)
                 (A) (A) (A) (A) (A) (A) (A) (A) (A) (A) (A) (A)
                 (A) (A) (A) (A) (A) (A) (A) (A) (A) (A) (A) (A)
                 (A) (A) (A) (A) (A) (A) (A) (A) (A) (A) (A) (A)
                 (A) (A) (A) (A) (A) (A) (A) (A) (A) (A) (A) (A)
                 (A)
       Virtual   (A) (A) (A) (A) (A) (A) (A) (A) (A) (A) (A) (A)
                 (A) (A) (A) (A) (A) (A) (A) (A) (A) (A) (A) (A)
                 (A) (A) (A) (A) (A) (A) (A) (A) (A) (A) (A) (A)
                 (A) (A) (A) (A) (A) (A) (A) (A) (A) (A) (A) (A)
                 (A) (A) (A) (A) (A) (A) (A) (A) (A) (A) (A) (A)
                 (A) (A) (A) (A) (A) (A) (A) (A) (A) (A) (A) (A)
                 (A) (A) (A) (A) (A) (A) (A) (A) (A) (A) (A) (A)
                 (A) (A) (A) (A) (A) (A) (A) (A) (A) (A) (A) (A)
                 (A) (A) (A) (A) (A) (A) (A) (A) (A) (A) (A) (A)
                 (A) (A) (A) (A) (A) (A) (A) (A) (A) (A) (A) (A)
                 (A) (A) (A) (A) (A) (A) (A) (A) (A) (A) (A) (A)
                 (A) (A) (A) (A) (A) (A) (A) (A) (A) (A) (A) (A)
                 (A) (A) (A) (A) (A) (A) (A) (A) (A) (A) (A) (A)
                 (A) (A) (A) (A) (A) (A) (A) (A) (A) (A) (A) (A)
                 (A) (A) (A) (A) (A) (A) (A) (A) (A) (A) (A) (A)
                 (A) (A) (A) (A) (A) (A) (A) (A) (A) (A) (A) (A)
                 (A) (A) (A) (A) (A) (A) (A) (A) (A) (A) (A) (A)
                 (A) (A) (A) (A) (A) (A) (A) (A) (A) (A) (A) (A)
                 (A) (A) (A) (A) (A) (A) (A) (A) (A) (A) (A) (A)
                 (A) (A) (A) (A) (A) (A) (A) (A) (A) (A) (A) (A)
                 (A) (A) (A) (A) (A) (A) (A) (A) (A) (A) (A) (A)
                 (A) (A) (A) (A) (A) (A) (A) (A) (A) (A) (A) (A)
                 (A) (A) (A) (A) (A) (A) (A) (A) (A) (A) (A) (A)
                 (A) (A) (A) (A) (A) (A) (A) (A) (A) (A) (A) (A)
                 (A) (A) (A) (A) (A) (A) (A) (A) (A) (A) (A) (A)
                 (A) (A) (A) (A) (A) (A) (A) (A) (A) (A) (A) (A)
                 (A) (A) (A) (A) (A) (A) (A) (A) (A) (A) (A) (A)
                 (A) (A) (A) (A) (A) (A) (A) (A) (A) (A) (A) (A)
                 (A) (A) (A) (A) (A) (A) (A) (A) (A) (A) (A) (A)
                 (A) (A) (A) (A) (A) (A) (A) (A) (A) (A) (A) (A)
                 (A) (A) (A) (A) (A) (A) (A) (A) (A) (A) (A) (A)
                 (A) (A) (A) (A) (A) (A) (A) (A) (A) (A) (A) (A)
                 (A) (A) (A) (A) (A) (A) (A) (A) (A) (A) (A) (A)
                 (A) (A) (A) (A) (A) (A) (A) (A) (A) (A) (A) (A)
                 (A) (A) (A) (A) (A) (A) (A) (A) (A) (A) (A) (A)
                 (A) (A) (A) (A) (A) (A) (A) (A) (A) (A) (A) (A)
                 (A) (A) (A) (A) (A) (A) (A) (A) (A) (A) (A) (A)
                 (A) (A) (A) (A) (A) (A) (A) (A) (A) (A) (A) (A)
                 (A) (A) (A) (A) (A) (A) (A) (A) (A) (A) (A) (A)
                 (A) (A) (A) (A) (A) (A) (A) (A) (A) (A) (A) (A)
                 (A) (A) (A) (A) (A) (A) (A) (A) (A) (A) (A) (A)
                 (A) (A) (A) (A) (A) (A) (A) (A) (A) (A) (A) (A)
                 (A) (A) (A) (A) (A) (A) (A) (A) (A) (A) (A) (A)
                 (A) (A) (A) (A) (A) (A) (A) (A) (A) (A) (A) (A)
                 (A) (A) (A) (A) (A) (A) (A) (A) (A) (A) (A) (A)
                 (A) (A) (A) (A) (A) (A) (A) (A) (A) (A) (A) (A)
                 (A) (A) (A) (A) (A) (A) (A) (A) (A) (A) (A) (A)
                 (A) (A) (A) (A) (A) (A) (A) (A) (A) (A) (A) (A)
                 (A) (A) (A) (A) (A) (A) (A) (A) (A) (A) (A) (A)
                 (A) (A) (A) (A) (A) (A) (A) (A) (A) (A) (A) (A)
                 (A) (A) (A) (A) (A) (A) (A) (A) (A) (A) (A) (A)
                 (A) (A) (A) (A) (A) (A) (A) (A) (A) (A) (A) (A)
                 (A) (A) (A) (A) (A) (A) (A) (A) (A) (A) (A) (A)
                 (A) (A) (A) (A) (A)
 The electronic state is 2-A.
 Alpha  occ. eigenvalues --  -18.99521 -18.99521 -14.30213 -14.30213 -14.26145
 Alpha  occ. eigenvalues --  -14.26145 -10.16312 -10.16312 -10.14515 -10.14515
 Alpha  occ. eigenvalues --  -10.14414 -10.14414 -10.13874 -10.13874 -10.11618
 Alpha  occ. eigenvalues --  -10.11618 -10.11450 -10.11450 -10.11197 -10.11197
 Alpha  occ. eigenvalues --  -10.11136 -10.11136 -10.11065 -10.11065 -10.10994
 Alpha  occ. eigenvalues --  -10.10994 -10.10750 -10.10750 -10.10533 -10.10533
 Alpha  occ. eigenvalues --  -10.10426 -10.10426 -10.10052 -10.10052 -10.06434
 Alpha  occ. eigenvalues --  -10.06395  -0.92385  -0.91637  -0.90400  -0.90126
 Alpha  occ. eigenvalues --   -0.84136  -0.82969  -0.76882  -0.76874  -0.76281
 Alpha  occ. eigenvalues --   -0.76246  -0.70082  -0.70015  -0.68556  -0.67099
 Alpha  occ. eigenvalues --   -0.66644  -0.65975  -0.65695  -0.63713  -0.63689
 Alpha  occ. eigenvalues --   -0.60410  -0.58417  -0.55673  -0.55058  -0.54402
 Alpha  occ. eigenvalues --   -0.52390  -0.52363  -0.51615  -0.49776  -0.49513
 Alpha  occ. eigenvalues --   -0.49497  -0.46609  -0.45193  -0.44507  -0.43679
 Alpha  occ. eigenvalues --   -0.42589  -0.42406  -0.41892  -0.41665  -0.38037
 Alpha  occ. eigenvalues --   -0.37835  -0.37701  -0.37439  -0.36852  -0.36194
 Alpha  occ. eigenvalues --   -0.35980  -0.35352  -0.35197  -0.34362  -0.34237
 Alpha  occ. eigenvalues --   -0.34172  -0.34127  -0.33695  -0.33538  -0.33259
 Alpha  occ. eigenvalues --   -0.32532  -0.31466  -0.30522  -0.29702  -0.28958
 Alpha  occ. eigenvalues --   -0.28846  -0.28429  -0.28320  -0.27565  -0.27384
 Alpha  occ. eigenvalues --   -0.26989  -0.26324  -0.26270  -0.26002  -0.25431
 Alpha  occ. eigenvalues --   -0.25403  -0.24654  -0.21472  -0.21202  -0.19970
 Alpha  occ. eigenvalues --   -0.19869  -0.17444  -0.17319  -0.14819  -0.14112
 Alpha  occ. eigenvalues --   -0.13647  -0.13628  -0.13359  -0.13051  -0.12979
 Alpha  occ. eigenvalues --   -0.08100  -0.00043
 Alpha virt. eigenvalues --    0.04462   0.04465   0.07460   0.07463   0.07514
 Alpha virt. eigenvalues --    0.07736   0.08268   0.08279   0.08637   0.09363
 Alpha virt. eigenvalues --    0.09663   0.10059   0.10251   0.10330   0.10671
 Alpha virt. eigenvalues --    0.10950   0.10984   0.11077   0.11780   0.12233
 Alpha virt. eigenvalues --    0.12280   0.12696   0.12729   0.13190   0.13430
 Alpha virt. eigenvalues --    0.13587   0.13909   0.14395   0.14825   0.14985
 Alpha virt. eigenvalues --    0.15325   0.15824   0.15983   0.16128   0.16901
 Alpha virt. eigenvalues --    0.16916   0.17275   0.17313   0.18057   0.18117
 Alpha virt. eigenvalues --    0.18208   0.19125   0.19336   0.19746   0.19799
 Alpha virt. eigenvalues --    0.19931   0.20312   0.20874   0.20927   0.21052
 Alpha virt. eigenvalues --    0.21154   0.21448   0.21568   0.21673   0.21955
 Alpha virt. eigenvalues --    0.22123   0.22233   0.22864   0.23030   0.23234
 Alpha virt. eigenvalues --    0.23399   0.23501   0.23719   0.24050   0.24352
 Alpha virt. eigenvalues --    0.24423   0.24561   0.24919   0.25163   0.25276
 Alpha virt. eigenvalues --    0.25455   0.25570   0.25962   0.26143   0.26199
 Alpha virt. eigenvalues --    0.26396   0.26459   0.26471   0.26940   0.27248
 Alpha virt. eigenvalues --    0.27333   0.27879   0.27907   0.28093   0.28315
 Alpha virt. eigenvalues --    0.28716   0.29008   0.29053   0.29199   0.29332
 Alpha virt. eigenvalues --    0.29611   0.29924   0.30237   0.30324   0.30660
 Alpha virt. eigenvalues --    0.30846   0.30937   0.31118   0.31307   0.31452
 Alpha virt. eigenvalues --    0.31762   0.31773   0.32190   0.32270   0.32499
 Alpha virt. eigenvalues --    0.32751   0.32778   0.33025   0.33494   0.33527
 Alpha virt. eigenvalues --    0.33570   0.33874   0.33892   0.34644   0.34795
 Alpha virt. eigenvalues --    0.35043   0.35240   0.35753   0.35781   0.35924
 Alpha virt. eigenvalues --    0.35952   0.36199   0.36378   0.36829   0.37206
 Alpha virt. eigenvalues --    0.37275   0.37463   0.37674   0.37759   0.38066
 Alpha virt. eigenvalues --    0.38421   0.38652   0.38738   0.38974   0.39219
 Alpha virt. eigenvalues --    0.39510   0.39777   0.40178   0.40181   0.40606
 Alpha virt. eigenvalues --    0.40660   0.40801   0.41435   0.41631   0.42074
 Alpha virt. eigenvalues --    0.42118   0.42724   0.42749   0.43101   0.43516
 Alpha virt. eigenvalues --    0.43547   0.43639   0.43814   0.44098   0.44251
 Alpha virt. eigenvalues --    0.44411   0.44774   0.45207   0.45246   0.45505
 Alpha virt. eigenvalues --    0.45621   0.46261   0.46473   0.46858   0.47772
 Alpha virt. eigenvalues --    0.48308   0.48329   0.48900   0.49165   0.49573
 Alpha virt. eigenvalues --    0.49739   0.50693   0.50982   0.51161   0.51926
 Alpha virt. eigenvalues --    0.52567   0.53044   0.53046   0.53370   0.53825
 Alpha virt. eigenvalues --    0.54126   0.54515   0.54827   0.55231   0.55426
 Alpha virt. eigenvalues --    0.55454   0.56333   0.56809   0.56850   0.57046
 Alpha virt. eigenvalues --    0.58802   0.59037   0.60025   0.61114   0.61669
 Alpha virt. eigenvalues --    0.63826   0.63942   0.65297   0.66429   0.69905
 Alpha virt. eigenvalues --    0.70331   0.70628   0.70999   0.72562   0.73160
 Alpha virt. eigenvalues --    0.73733   0.76373   0.76518   0.76589   0.77111
 Alpha virt. eigenvalues --    0.77709   0.77883   0.77990   0.78311   0.78741
 Alpha virt. eigenvalues --    0.78825   0.80435   0.80665   0.81411   0.81438
 Alpha virt. eigenvalues --    0.81797   0.82091   0.82497   0.83041   0.83115
 Alpha virt. eigenvalues --    0.83144   0.83846   0.83932   0.84329   0.84345
 Alpha virt. eigenvalues --    0.84922   0.85157   0.85281   0.85861   0.86417
 Alpha virt. eigenvalues --    0.86591   0.87299   0.87891   0.88273   0.88336
 Alpha virt. eigenvalues --    0.89253   0.90309   0.90380   0.91702   0.92354
 Alpha virt. eigenvalues --    0.92409   0.92537   0.92880   0.93539   0.93985
 Alpha virt. eigenvalues --    0.94322   0.94452   0.95096   0.95494   0.96177
 Alpha virt. eigenvalues --    0.96603   0.96736   0.96941   0.97606   0.97938
 Alpha virt. eigenvalues --    0.98329   0.98404   0.98588   1.00248   1.00412
 Alpha virt. eigenvalues --    1.00591   1.01673   1.02081   1.02536   1.02800
 Alpha virt. eigenvalues --    1.03040   1.03350   1.05414   1.05620   1.05943
 Alpha virt. eigenvalues --    1.06280   1.06491   1.07377   1.08098   1.08869
 Alpha virt. eigenvalues --    1.09855   1.10233   1.10939   1.10976   1.11230
 Alpha virt. eigenvalues --    1.12355   1.12659   1.13466   1.14137   1.14457
 Alpha virt. eigenvalues --    1.14910   1.15281   1.15964   1.16367   1.16423
 Alpha virt. eigenvalues --    1.18438   1.19533   1.21080   1.21636   1.21659
 Alpha virt. eigenvalues --    1.21915   1.22671   1.23320   1.24006   1.24180
 Alpha virt. eigenvalues --    1.25006   1.25969   1.26923   1.27278   1.27786
 Alpha virt. eigenvalues --    1.28033   1.29020   1.30208   1.30703   1.31975
 Alpha virt. eigenvalues --    1.32571   1.32673   1.33112   1.33281   1.33690
 Alpha virt. eigenvalues --    1.34942   1.35109   1.35260   1.35939   1.36180
 Alpha virt. eigenvalues --    1.36440   1.37492   1.37928   1.38465   1.39125
 Alpha virt. eigenvalues --    1.39323   1.39771   1.40069   1.41279   1.41507
 Alpha virt. eigenvalues --    1.42035   1.42517   1.42813   1.43667   1.44154
 Alpha virt. eigenvalues --    1.44563   1.45480   1.45713   1.46048   1.46400
 Alpha virt. eigenvalues --    1.46485   1.46662   1.47379   1.48065   1.48574
 Alpha virt. eigenvalues --    1.48776   1.49236   1.49429   1.49692   1.49930
 Alpha virt. eigenvalues --    1.50333   1.50346   1.50865   1.51163   1.51409
 Alpha virt. eigenvalues --    1.51515   1.52265   1.52297   1.52846   1.52949
 Alpha virt. eigenvalues --    1.53595   1.53638   1.55085   1.55598   1.56816
 Alpha virt. eigenvalues --    1.57199   1.58745   1.59651   1.62180   1.62725
 Alpha virt. eigenvalues --    1.65521   1.66981   1.67285   1.69925   1.70094
 Alpha virt. eigenvalues --    1.70816   1.71149   1.72157   1.72250   1.72907
 Alpha virt. eigenvalues --    1.74782   1.75154   1.78632   1.83119   1.83828
 Alpha virt. eigenvalues --    1.84821   1.85157   1.85933   1.86139   1.87847
 Alpha virt. eigenvalues --    1.89080   1.89644   1.90139   1.91079   1.91097
 Alpha virt. eigenvalues --    1.91922   1.92177   1.92796   1.92973   1.93856
 Alpha virt. eigenvalues --    1.94532   1.94977   1.95703   1.96145   1.97239
 Alpha virt. eigenvalues --    1.98056   1.98340   1.99601   2.00072   2.01091
 Alpha virt. eigenvalues --    2.01219   2.01489   2.02394   2.02604   2.03061
 Alpha virt. eigenvalues --    2.03072   2.03152   2.03595   2.03945   2.04419
 Alpha virt. eigenvalues --    2.04709   2.05249   2.05736   2.05984   2.07270
 Alpha virt. eigenvalues --    2.08355   2.08370   2.09440   2.09860   2.09870
 Alpha virt. eigenvalues --    2.10585   2.11390   2.11531   2.12429   2.13308
 Alpha virt. eigenvalues --    2.13481   2.13926   2.15086   2.15203   2.16748
 Alpha virt. eigenvalues --    2.17437   2.18218   2.18551   2.20554   2.20807
 Alpha virt. eigenvalues --    2.22238   2.22274   2.24432   2.24830   2.24915
 Alpha virt. eigenvalues --    2.26243   2.27275   2.27420   2.27842   2.28722
 Alpha virt. eigenvalues --    2.31011   2.32429   2.33122   2.34205   2.35801
 Alpha virt. eigenvalues --    2.35830   2.36082   2.36284   2.37860   2.38405
 Alpha virt. eigenvalues --    2.38447   2.39166   2.40352   2.42418   2.42512
 Alpha virt. eigenvalues --    2.43352   2.43487   2.44437   2.44515   2.45118
 Alpha virt. eigenvalues --    2.46398   2.46950   2.47128   2.47674   2.47762
 Alpha virt. eigenvalues --    2.48497   2.48639   2.49916   2.50528   2.50598
 Alpha virt. eigenvalues --    2.50896   2.51912   2.52408   2.53743   2.55605
 Alpha virt. eigenvalues --    2.55778   2.55878   2.56139   2.56734   2.57575
 Alpha virt. eigenvalues --    2.57939   2.58225   2.59636   2.60663   2.61175
 Alpha virt. eigenvalues --    2.61778   2.62217   2.63092   2.63496   2.63715
 Alpha virt. eigenvalues --    2.64419   2.64836   2.66029   2.66218   2.66307
 Alpha virt. eigenvalues --    2.66359   2.66934   2.67028   2.68055   2.68816
 Alpha virt. eigenvalues --    2.69189   2.69840   2.70460   2.70933   2.72572
 Alpha virt. eigenvalues --    2.73691   2.74306   2.74708   2.74792   2.76178
 Alpha virt. eigenvalues --    2.77065   2.77249   2.77661   2.78369   2.79118
 Alpha virt. eigenvalues --    2.79358   2.80007   2.81901   2.84198   2.84662
 Alpha virt. eigenvalues --    2.84795   2.85525   2.85577   2.85684   2.87554
 Alpha virt. eigenvalues --    2.88632   2.91307   2.92607   2.94089   2.96353
 Alpha virt. eigenvalues --    2.97112   2.97758   2.98377   3.00333   3.00414
 Alpha virt. eigenvalues --    3.01344   3.01922   3.02815   3.03710   3.04249
 Alpha virt. eigenvalues --    3.05976   3.06416   3.11442   3.12372   3.14454
 Alpha virt. eigenvalues --    3.15559   3.19080   3.19467   3.21068   3.23230
 Alpha virt. eigenvalues --    3.24361   3.25870   3.28515   3.29396   3.31952
 Alpha virt. eigenvalues --    3.33977   3.35189   3.35712   3.35766   3.36809
 Alpha virt. eigenvalues --    3.36955   3.37874   3.39536   3.40677   3.42440
 Alpha virt. eigenvalues --    3.42891   3.43877   3.46194   3.47921   3.48171
 Alpha virt. eigenvalues --    3.49843   3.49900   3.54142   3.59278   3.59792
 Alpha virt. eigenvalues --    3.61173   3.62943   3.64600   3.69104   3.71326
 Alpha virt. eigenvalues --    3.91383   3.91511   3.99226   3.99486   4.35510
 Alpha virt. eigenvalues --    4.38726   4.39677   4.41555   4.41649   4.43801
 Alpha virt. eigenvalues --    4.44684   4.47066   4.47518   4.50272   4.50952
 Alpha virt. eigenvalues --    4.53136   4.56409   4.57512   4.57609   4.58236
 Alpha virt. eigenvalues --    4.59489   4.60616   4.61297   4.62070   4.62472
 Alpha virt. eigenvalues --    4.68817   4.68956   4.69322   4.70258   4.74808
 Alpha virt. eigenvalues --    4.75700   4.79729   4.88230   4.91339   4.96286
 Alpha virt. eigenvalues --    4.98187   5.03448   5.03634   5.14102   5.24351
  Beta  occ. eigenvalues --  -18.99264 -18.99264 -14.30260 -14.30260 -14.26196
  Beta  occ. eigenvalues --  -14.26196 -10.16174 -10.16173 -10.14355 -10.14355
  Beta  occ. eigenvalues --  -10.14007 -10.14007 -10.13825 -10.13825 -10.11628
  Beta  occ. eigenvalues --  -10.11628 -10.11450 -10.11450 -10.11192 -10.11192
  Beta  occ. eigenvalues --  -10.11116 -10.11116 -10.11070 -10.11070 -10.10965
  Beta  occ. eigenvalues --  -10.10965 -10.10737 -10.10737 -10.10524 -10.10524
  Beta  occ. eigenvalues --  -10.10413 -10.10413 -10.10054 -10.10054 -10.06499
  Beta  occ. eigenvalues --  -10.06460  -0.92028  -0.91277  -0.90127  -0.89857
  Beta  occ. eigenvalues --   -0.83873  -0.82723  -0.76828  -0.76820  -0.76238
  Beta  occ. eigenvalues --   -0.76204  -0.69985  -0.69930  -0.68515  -0.67021
  Beta  occ. eigenvalues --   -0.66598  -0.65824  -0.65573  -0.63671  -0.63646
  Beta  occ. eigenvalues --   -0.60066  -0.58110  -0.55579  -0.54890  -0.54215
  Beta  occ. eigenvalues --   -0.52297  -0.52270  -0.51534  -0.49582  -0.49489
  Beta  occ. eigenvalues --   -0.49457  -0.46511  -0.45060  -0.44407  -0.43606
  Beta  occ. eigenvalues --   -0.42509  -0.42342  -0.41793  -0.41606  -0.37974
  Beta  occ. eigenvalues --   -0.37786  -0.37629  -0.37367  -0.36411  -0.36121
  Beta  occ. eigenvalues --   -0.35884  -0.35216  -0.35042  -0.34327  -0.34162
  Beta  occ. eigenvalues --   -0.34148  -0.34048  -0.33650  -0.33482  -0.33135
  Beta  occ. eigenvalues --   -0.31973  -0.31169  -0.30169  -0.29138  -0.28898
  Beta  occ. eigenvalues --   -0.28705  -0.28396  -0.28195  -0.27438  -0.27278
  Beta  occ. eigenvalues --   -0.26851  -0.26190  -0.26165  -0.25708  -0.25365
  Beta  occ. eigenvalues --   -0.25278  -0.24384  -0.20548  -0.20275  -0.19756
  Beta  occ. eigenvalues --   -0.19385  -0.17329  -0.17191  -0.14593  -0.14257
  Beta  occ. eigenvalues --   -0.13527  -0.13512  -0.13153  -0.12777  -0.12748
  Beta  occ. eigenvalues --   -0.06556
  Beta virt. eigenvalues --    0.04466   0.04499   0.05473   0.07462   0.07467
  Beta virt. eigenvalues --    0.07826   0.07991   0.08268   0.08295   0.09127
  Beta virt. eigenvalues --    0.09378   0.09667   0.10291   0.10305   0.10617
  Beta virt. eigenvalues --    0.10782   0.11045   0.11117   0.11176   0.11881
  Beta virt. eigenvalues --    0.12234   0.12704   0.12737   0.13200   0.13230
  Beta virt. eigenvalues --    0.13589   0.13593   0.13917   0.14413   0.14835
  Beta virt. eigenvalues --    0.15002   0.15341   0.15831   0.16017   0.16136
  Beta virt. eigenvalues --    0.16909   0.16944   0.17292   0.17349   0.18093
  Beta virt. eigenvalues --    0.18126   0.18235   0.19149   0.19527   0.19757
  Beta virt. eigenvalues --    0.19855   0.20000   0.20484   0.20960   0.20962
  Beta virt. eigenvalues --    0.21116   0.21233   0.21463   0.21635   0.21684
  Beta virt. eigenvalues --    0.21970   0.22159   0.22754   0.22937   0.23354
  Beta virt. eigenvalues --    0.23358   0.23567   0.23632   0.23806   0.24117
  Beta virt. eigenvalues --    0.24450   0.24473   0.24634   0.24963   0.25187
  Beta virt. eigenvalues --    0.25348   0.25588   0.25624   0.26079   0.26174
  Beta virt. eigenvalues --    0.26260   0.26438   0.26541   0.26554   0.26963
  Beta virt. eigenvalues --    0.27265   0.27363   0.27943   0.27953   0.28222
  Beta virt. eigenvalues --    0.28354   0.28747   0.29079   0.29092   0.29250
  Beta virt. eigenvalues --    0.29369   0.29628   0.30015   0.30258   0.30392
  Beta virt. eigenvalues --    0.30733   0.30874   0.30977   0.31162   0.31352
  Beta virt. eigenvalues --    0.31473   0.31805   0.31928   0.32228   0.32388
  Beta virt. eigenvalues --    0.32609   0.32815   0.32841   0.33097   0.33565
  Beta virt. eigenvalues --    0.33630   0.33650   0.33915   0.34036   0.34759
  Beta virt. eigenvalues --    0.34862   0.35091   0.35285   0.35855   0.35950
  Beta virt. eigenvalues --    0.36003   0.36006   0.36248   0.36424   0.36906
  Beta virt. eigenvalues --    0.37257   0.37387   0.37523   0.37723   0.37808
  Beta virt. eigenvalues --    0.38118   0.38468   0.38755   0.38794   0.39094
  Beta virt. eigenvalues --    0.39265   0.39562   0.39807   0.40239   0.40247
  Beta virt. eigenvalues --    0.40682   0.40717   0.40942   0.41486   0.41769
  Beta virt. eigenvalues --    0.42131   0.42133   0.42794   0.42809   0.43150
  Beta virt. eigenvalues --    0.43612   0.43677   0.43705   0.43938   0.44191
  Beta virt. eigenvalues --    0.44337   0.44517   0.44849   0.45294   0.45304
  Beta virt. eigenvalues --    0.45595   0.45708   0.46345   0.46577   0.46914
  Beta virt. eigenvalues --    0.47825   0.48427   0.48436   0.49008   0.49305
  Beta virt. eigenvalues --    0.49641   0.49828   0.50805   0.51107   0.51259
  Beta virt. eigenvalues --    0.52041   0.52640   0.53073   0.53138   0.53468
  Beta virt. eigenvalues --    0.53857   0.54252   0.54582   0.54893   0.55299
  Beta virt. eigenvalues --    0.55471   0.55501   0.56375   0.56878   0.56880
  Beta virt. eigenvalues --    0.57060   0.58845   0.59105   0.60139   0.61199
  Beta virt. eigenvalues --    0.61779   0.64010   0.64099   0.65374   0.66519
  Beta virt. eigenvalues --    0.69943   0.70381   0.70667   0.71047   0.72633
  Beta virt. eigenvalues --    0.73318   0.73788   0.76413   0.76558   0.76708
  Beta virt. eigenvalues --    0.77187   0.77743   0.77925   0.78032   0.78515
  Beta virt. eigenvalues --    0.78773   0.78865   0.80486   0.80841   0.81448
  Beta virt. eigenvalues --    0.81466   0.81808   0.82102   0.82552   0.83107
  Beta virt. eigenvalues --    0.83213   0.83255   0.83898   0.83977   0.84365
  Beta virt. eigenvalues --    0.84394   0.84993   0.85227   0.85305   0.85897
  Beta virt. eigenvalues --    0.86504   0.86672   0.87424   0.88026   0.88366
  Beta virt. eigenvalues --    0.88451   0.89316   0.90400   0.90476   0.91779
  Beta virt. eigenvalues --    0.92505   0.92611   0.92675   0.92959   0.93639
  Beta virt. eigenvalues --    0.94265   0.94481   0.94637   0.95232   0.95659
  Beta virt. eigenvalues --    0.96294   0.96725   0.96851   0.97124   0.97799
  Beta virt. eigenvalues --    0.98036   0.98469   0.98652   0.98811   1.00321
  Beta virt. eigenvalues --    1.00466   1.00731   1.01709   1.02154   1.02665
  Beta virt. eigenvalues --    1.02900   1.03067   1.03479   1.05441   1.05724
  Beta virt. eigenvalues --    1.05993   1.06379   1.06706   1.07589   1.08211
  Beta virt. eigenvalues --    1.09006   1.09961   1.10314   1.10974   1.11037
  Beta virt. eigenvalues --    1.11317   1.12437   1.12699   1.13566   1.14256
  Beta virt. eigenvalues --    1.14561   1.15009   1.15336   1.16024   1.16403
  Beta virt. eigenvalues --    1.16598   1.18474   1.19623   1.21205   1.21719
  Beta virt. eigenvalues --    1.21746   1.21981   1.22744   1.23374   1.24071
  Beta virt. eigenvalues --    1.24219   1.25075   1.26032   1.27073   1.27342
  Beta virt. eigenvalues --    1.27824   1.28104   1.29094   1.30259   1.30770
  Beta virt. eigenvalues --    1.32021   1.32731   1.32740   1.33188   1.33588
  Beta virt. eigenvalues --    1.33750   1.34990   1.35186   1.35379   1.36078
  Beta virt. eigenvalues --    1.36243   1.36569   1.37561   1.38003   1.38640
  Beta virt. eigenvalues --    1.39200   1.39409   1.39874   1.40160   1.41531
  Beta virt. eigenvalues --    1.41595   1.42266   1.42624   1.43101   1.43882
  Beta virt. eigenvalues --    1.44304   1.44809   1.45556   1.45900   1.46150
  Beta virt. eigenvalues --    1.46461   1.46600   1.46785   1.47494   1.48274
  Beta virt. eigenvalues --    1.48692   1.48836   1.49338   1.49505   1.49788
  Beta virt. eigenvalues --    1.50062   1.50418   1.50579   1.50936   1.51327
  Beta virt. eigenvalues --    1.51508   1.51612   1.52409   1.52469   1.53037
  Beta virt. eigenvalues --    1.53089   1.53768   1.53768   1.55399   1.55789
  Beta virt. eigenvalues --    1.56917   1.57568   1.58912   1.59927   1.62286
  Beta virt. eigenvalues --    1.62880   1.65610   1.67046   1.67502   1.70140
  Beta virt. eigenvalues --    1.70165   1.70892   1.71371   1.72317   1.72511
  Beta virt. eigenvalues --    1.73116   1.74851   1.75281   1.78832   1.83324
  Beta virt. eigenvalues --    1.84074   1.84881   1.85224   1.86094   1.86235
  Beta virt. eigenvalues --    1.87983   1.89215   1.89769   1.90214   1.91251
  Beta virt. eigenvalues --    1.91321   1.92087   1.92285   1.92921   1.93085
  Beta virt. eigenvalues --    1.93937   1.94767   1.95090   1.95882   1.96235
  Beta virt. eigenvalues --    1.97382   1.98438   1.98574   1.99687   2.00106
  Beta virt. eigenvalues --    2.01220   2.01400   2.01656   2.02457   2.02636
  Beta virt. eigenvalues --    2.03112   2.03141   2.03231   2.03673   2.04020
  Beta virt. eigenvalues --    2.04551   2.04826   2.05342   2.05810   2.06032
  Beta virt. eigenvalues --    2.07407   2.08396   2.08409   2.09477   2.09920
  Beta virt. eigenvalues --    2.10050   2.10782   2.11502   2.11643   2.12518
  Beta virt. eigenvalues --    2.13445   2.13603   2.14030   2.15163   2.15239
  Beta virt. eigenvalues --    2.16996   2.17538   2.18311   2.18805   2.20717
  Beta virt. eigenvalues --    2.21073   2.22442   2.22543   2.24537   2.24920
  Beta virt. eigenvalues --    2.25026   2.26377   2.27408   2.27550   2.28072
  Beta virt. eigenvalues --    2.28942   2.31654   2.32592   2.33217   2.34550
  Beta virt. eigenvalues --    2.35910   2.35933   2.36283   2.36435   2.37960
  Beta virt. eigenvalues --    2.38524   2.38569   2.39343   2.40541   2.42647
  Beta virt. eigenvalues --    2.42705   2.43397   2.43538   2.44457   2.44730
  Beta virt. eigenvalues --    2.45192   2.46482   2.47000   2.47163   2.47787
  Beta virt. eigenvalues --    2.47877   2.48559   2.48665   2.50090   2.50614
  Beta virt. eigenvalues --    2.50788   2.50998   2.52096   2.52737   2.54126
  Beta virt. eigenvalues --    2.55698   2.55925   2.56004   2.56470   2.56835
  Beta virt. eigenvalues --    2.57663   2.58128   2.58306   2.59815   2.60708
  Beta virt. eigenvalues --    2.61254   2.61825   2.62288   2.63196   2.63569
  Beta virt. eigenvalues --    2.63762   2.64484   2.65078   2.66096   2.66280
  Beta virt. eigenvalues --    2.66347   2.66414   2.67088   2.67219   2.68092
  Beta virt. eigenvalues --    2.68886   2.69250   2.69916   2.70632   2.71109
  Beta virt. eigenvalues --    2.72684   2.73832   2.74369   2.74782   2.74943
  Beta virt. eigenvalues --    2.76259   2.77198   2.77357   2.77722   2.78558
  Beta virt. eigenvalues --    2.79218   2.79649   2.80231   2.82028   2.84403
  Beta virt. eigenvalues --    2.84756   2.84905   2.85581   2.85647   2.85838
  Beta virt. eigenvalues --    2.87632   2.88773   2.91701   2.92846   2.94335
  Beta virt. eigenvalues --    2.96485   2.97166   2.97961   2.98686   3.00432
  Beta virt. eigenvalues --    3.00494   3.01418   3.02012   3.03013   3.03775
  Beta virt. eigenvalues --    3.04335   3.06038   3.06779   3.11637   3.12449
  Beta virt. eigenvalues --    3.14581   3.15649   3.19183   3.19582   3.21153
  Beta virt. eigenvalues --    3.23290   3.24416   3.25941   3.28550   3.29449
  Beta virt. eigenvalues --    3.32008   3.34061   3.35232   3.35716   3.35770
  Beta virt. eigenvalues --    3.36823   3.36961   3.37949   3.39629   3.40873
  Beta virt. eigenvalues --    3.42452   3.42943   3.43995   3.46219   3.47939
  Beta virt. eigenvalues --    3.48186   3.49886   3.49962   3.54214   3.59285
  Beta virt. eigenvalues --    3.59799   3.61258   3.62960   3.64656   3.69193
  Beta virt. eigenvalues --    3.71400   3.91397   3.91525   3.99242   3.99503
  Beta virt. eigenvalues --    4.35553   4.38757   4.39702   4.41582   4.41677
  Beta virt. eigenvalues --    4.43838   4.44723   4.47100   4.47537   4.50326
  Beta virt. eigenvalues --    4.51070   4.53175   4.56473   4.57543   4.57644
  Beta virt. eigenvalues --    4.58293   4.59757   4.60799   4.61425   4.62184
  Beta virt. eigenvalues --    4.62637   4.68866   4.69004   4.69365   4.70312
  Beta virt. eigenvalues --    4.75321   4.75744   4.79806   4.88731   4.91573
  Beta virt. eigenvalues --    4.96472   4.98400   5.03497   5.03680   5.14382
  Beta virt. eigenvalues --    5.24656
          Condensed to atoms (all electrons):
          Atomic-Atomic Spin Densities.
 Mulliken charges and spin densities:
               1          2
     1  N   -0.552174  -0.030163
     2  C    0.088841   0.069718
     3  C    0.151063   0.324301
     4  C    0.256475  -0.040998
     5  C    0.256452  -0.040997
     6  C    0.151035   0.324301
     7  C    0.088824   0.069719
     8  N   -0.552175  -0.030163
     9  O   -0.604064   0.090965
    10  O   -0.604064   0.090965
    11  H    0.299975   0.000461
    12  H    0.299975   0.000461
    13  C   -0.035170  -0.004509
    14  C    0.291858   0.020449
    15  C    0.065872   0.002696
    16  C    0.282142  -0.008819
    17  C   -0.526159   0.019530
    18  C   -0.313465   0.008588
    19  H    0.106626   0.000337
    20  H    0.141913  -0.000405
    21  H    0.111525  -0.000354
    22  H    0.102604  -0.000611
    23  N    0.185550  -0.023597
    24  C   -0.037544   0.033425
    25  C   -0.034022   0.019005
    26  C    0.004432   0.002354
    27  C   -0.305411  -0.009251
    28  C   -0.439171   0.005314
    29  H    0.150059  -0.000501
    30  C   -0.217115   0.023002
    31  H    0.110570   0.000428
    32  H    0.111002  -0.000086
    33  H    0.103832  -0.001279
    34  C   -0.305407  -0.009251
    35  C   -0.034037   0.019005
    36  C   -0.037568   0.033425
    37  C    0.004428   0.002354
    38  C   -0.439163   0.005314
    39  C   -0.217114   0.023003
    40  H    0.110570   0.000428
    41  H    0.150059  -0.000501
    42  H    0.111002  -0.000086
    43  H    0.103832  -0.001279
    44  N    0.185544  -0.023597
    45  C    0.065887   0.002696
    46  C    0.291876   0.020449
    47  C    0.282132  -0.008821
    48  C   -0.035161  -0.004510
    49  C   -0.526170   0.019531
    50  H    0.141914  -0.000405
    51  C   -0.313467   0.008587
    52  H    0.106626   0.000337
    53  H    0.111525  -0.000354
    54  H    0.102604  -0.000611
 Sum of Mulliken charges =  -1.00000   1.00000
 Mulliken charges and spin densities with hydrogens summed into heavy atoms:
               1          2
     1  N   -0.252199  -0.029701
     2  C    0.088841   0.069718
     3  C    0.151063   0.324301
     4  C    0.256475  -0.040998
     5  C    0.256452  -0.040997
     6  C    0.151035   0.324301
     7  C    0.088824   0.069719
     8  N   -0.252200  -0.029701
     9  O   -0.604064   0.090965
    10  O   -0.604064   0.090965
    13  C    0.071457  -0.004173
    14  C    0.291858   0.020449
    15  C    0.065872   0.002696
    16  C    0.424055  -0.009224
    17  C   -0.414634   0.019176
    18  C   -0.210861   0.007977
    23  N    0.185550  -0.023597
    24  C   -0.037544   0.033425
    25  C   -0.034022   0.019005
    26  C    0.154491   0.001853
    27  C   -0.194841  -0.008822
    28  C   -0.328169   0.005228
    30  C   -0.113283   0.021723
    34  C   -0.194837  -0.008823
    35  C   -0.034037   0.019005
    36  C   -0.037568   0.033425
    37  C    0.154487   0.001853
    38  C   -0.328162   0.005228
    39  C   -0.113282   0.021724
    44  N    0.185544  -0.023597
    45  C    0.065887   0.002696
    46  C    0.291876   0.020449
    47  C    0.424046  -0.009226
    48  C    0.071466  -0.004173
    49  C   -0.414645   0.019177
    51  C   -0.210863   0.007976
 Electronic spatial extent (au):  <R**2>=          19929.1141
 Charge=             -1.0000 electrons
 Dipole moment (field-independent basis, Debye):
    X=             -0.0000    Y=              0.0000    Z=             -0.3987  Tot=              0.3987
 Quadrupole moment (field-independent basis, Debye-Ang):
   XX=           -261.0347   YY=           -242.8873   ZZ=           -217.1703
   XY=            -12.7009   XZ=             -0.0000   YZ=              0.0000
 Traceless Quadrupole moment (field-independent basis, Debye-Ang):
   XX=            -20.6706   YY=             -2.5232   ZZ=             23.1937
   XY=            -12.7009   XZ=             -0.0000   YZ=              0.0000
 Octapole moment (field-independent basis, Debye-Ang**2):
  XXX=             -0.0011  YYY=              0.0004  ZZZ=              4.0930  XYY=             -0.0000
  XXY=             -0.0005  XXZ=              2.0258  XZZ=             -0.0002  YZZ=             -0.0001
  YYZ=             -6.6876  XYZ=            -19.2722
 Hexadecapole moment (field-independent basis, Debye-Ang**3):
 XXXX=         -23178.3346 YYYY=          -4119.8903 ZZZZ=          -2843.5610 XXXY=            188.5795
 XXXZ=             -0.0044 YYYX=           -127.8863 YYYZ=             -0.0005 ZZZX=              0.0004
 ZZZY=              0.0011 XXYY=          -4649.1721 XXZZ=          -4505.0974 YYZZ=           -962.6362
 XXYZ=              0.0001 YYXZ=              0.0004 ZZXY=            -13.5307
 N-N= 3.478885712626D+03 E-N=-1.052006286889D+04  KE= 1.509677930560D+03
                          Isotropic Fermi Contact Couplings
        Atom                 a.u.       MegaHertz       Gauss      10(-4) cm-1
     1  N(14)             -0.01243      -4.01621      -1.43308      -1.33966
     2  C(13)              0.00878       9.86895       3.52149       3.29193
     3  C(13)              0.03439      38.65610      13.79346      12.89429
     4  C(13)             -0.01290     -14.49813      -5.17329      -4.83606
     5  C(13)             -0.01290     -14.49808      -5.17327      -4.83604
     6  C(13)              0.03439      38.65598      13.79342      12.89425
     7  C(13)              0.00878       9.86899       3.52150       3.29194
     8  N(14)             -0.01243      -4.01621      -1.43308      -1.33966
[...]
 3,-0.00000056,-0.00002016,-0.00000801,0.00000098,0.00000082,-0.0000045
 3,-0.00001568,0.00000230,0.00000898,-0.00000186,0.00000748,-0.00000242
 ,0.00001266,-0.00000236,0.00000722,0.00000233,0.00000128,-0.00000145,-
 0.00000098,0.00000278,-0.00000167,0.00000221,0.00000070,-0.00000133,-0
 .00253795,0.00229893,-0.00397669,0.00324453,-0.00445619,0.01374552,0.0
 0523504,0.00028597,0.00094163,-0.00083040,0.00053980,-0.00128962,0.003
 19748,0.00062869,-0.00036152,-0.00202245,-0.00202848,0.00282769,-0.000
 26288,0.00008689,-0.00012801,0.00002741,0.00013210,-0.00014085,0.00004
 543,-0.00007868,-0.00005091,-0.00009024,-0.00003229,-0.00005999,-0.001
 01549,0.00096247,-0.00326094,-0.02452407,0.00746602,-0.02085191,0.0335
 1265,0.03468166,-0.04219461,0.00952716,-0.01705397,0.03392376,-0.09000
 869,0.11173801,-0.24911641,-0.01345313,0.03245347,-0.11135171,0.002811
 67,0.00514056,0.00023003,-0.00541759,-0.26537292,0.53768064,-0.0000536
 6,0.00012061,0.00008274,0.00004322,0.00022226,0.00001803,0.00004024,-0
 .00019321,0.00019632,0.00004909,-0.00005891,-0.00000081,-0.00002218,-0
 .00011510,-0.00000492,-0.00002753,-0.00007684,0.00000346,0.00000310,-0
 .00002995,-0.00000348,0.00004529,0.00009036,0.00000679,-0.00011261,-0.
 00020235,-0.00001197,-0.00001252,0.00006675,0.00003440,0.00001142,-0.0
 0000289,-0.00000656,0.00000645,0.00001902,-0.00000826,-0.00000016,-0.0
 0000207,0.00000247,-0.00002702,-0.00000699,0.00001285,0.00001322,0.000
 04870,0.00004724,0.00000455,-0.00001651,-0.00001663,0.00001682,0.00000
 863,0.00001025,-0.00001649,-0.00000104,-0.00000160,-0.00000578,0.00000
 011,0.00000029,0.00000248,0.00000458,0.00000861,0.00000169,-0.00000091
 ,-0.00000302,-0.00000475,-0.00000264,-0.00000295,-0.00004135,0.0000070
 9,-0.00000090,0.00004584,-0.00004742,-0.00006062,-0.00003790,-0.000002
 61,-0.00001688,-0.00000478,0.00001600,0.00002301,0.00000638,-0.0000021
 2,-0.00000864,0.00001910,-0.00000212,-0.00000657,0.00000288,-0.0000042
 8,-0.00000793,-0.00001794,0.00000242,0.00000596,-0.00000512,-0.0000013
 3,-0.00000021,0.00000028,0.00000206,0.00000518,-0.00000512,0.00000209,
 0.00000281,-0.00046485,-0.00031546,0.00038745,0.00094785,0.00105987,-0
 .00082561,-0.00072856,-0.00001272,-0.00014604,0.00006021,0.00003058,-0
 .00005174,0.00001910,-0.00000321,0.00002775,0.00035385,-0.00008916,0.0
 0020511,0.00044042,-0.00007572,0.00013223,-0.00000502,-0.00001122,0.00
 001042,0.00003278,-0.00000008,0.00000182,-0.00000100,-0.00002989,0.000
 03831,-0.00099244,-0.00015365,-0.00009280,0.00075975,-0.00214390,0.002
 43220,-0.01688799,0.00163541,-0.00581240,0.00025876,-0.00026601,0.0005
 6211,-0.32194089,0.00429682,-0.05498076,0.00175761,0.00084296,-0.00222
 122,-0.00007850,0.00012862,-0.00001923,-0.00713772,-0.00133497,0.00040
 200,0.34330603,-0.00002135,0.00001323,0.00005501,-0.00001010,0.0000349
 0,0.00002432,0.00008641,-0.00007602,0.00011080,-0.00003134,0.00000638,
 -0.00000657,0.00001359,-0.00002322,-0.00001680,-0.00001495,0.00000228,
 0.00000362,0.00002213,-0.00000126,-0.00001360,-0.00000264,0.00000077,0
 .00000175,-0.00001381,-0.00003880,-0.00001397,-0.00001621,-0.00000458,
 -0.00000796,0.00000169,0.00000177,0.00000239,-0.00001351,0.00000443,-0
 .00000272,0.00000097,0.00000050,0.00000115,-0.00000513,-0.00000250,0.0
 0000028,0.00000553,0.00000688,0.00000456,-0.00000084,-0.00000103,-0.00
 000152,0.00000034,-0.00000013,0.00000136,-0.00000125,-0.00000153,-0.00
 000175,-0.00000041,0.00000030,-0.00000016,0.00000059,0.00000104,0.0000
 0170,-0.00000021,-0.00000055,-0.00000132,-0.00000042,0.00000004,-0.000
 00019,-0.00000058,-0.00000332,-0.00000424,-0.00000073,-0.00000254,-0.0
 0000200,-0.00000181,0.00000117,-0.00000042,-0.00000037,0.00000179,0.00
 000172,-0.00000019,-0.00000067,0.00000078,0.00000200,-0.00000132,-0.00
 000026,-0.00000027,0.00000062,-0.00000062,-0.00000137,-0.00000024,-0.0
 0000060,-0.00000066,0.00000017,-0.00000006,0.00000014,0.00000010,-0.00
 000064,-0.00000017,0.00000040,-0.00000016,-0.00028875,-0.00003897,-0.0
 0024891,0.00088994,-0.00214950,-0.00148367,-0.00013443,0.00003790,-0.0
 0030216,0.00000254,0.00005783,0.00003608,0.00013213,-0.00000057,-0.000
 08165,0.00007252,-0.00016870,0.00018085,0.00016809,0.00013238,0.000372
 27,0.00000170,0.00001076,-0.00001243,0.00001964,0.00003219,0.00000988,
 -0.00001552,0.00005119,0.00003117,-0.00074847,-0.00003525,-0.00011496,
 -0.00129093,0.00358779,0.00487325,-0.01423170,0.00432370,-0.00455970,-
 0.00023604,-0.00082074,-0.00006476,0.00318186,-0.04201772,0.01261477,0
 .00011737,0.00378084,0.00564884,0.00005006,-0.00078228,-0.00061152,0.0
 1535199,0.00336867,0.00178707,-0.00387699,0.03323046,0.00003304,-0.000
 04022,-0.00005992,0.00002565,-0.00000162,-0.00000343,0.00003481,0.0002
 0567,-0.00018328,-0.00002596,-0.00000498,0.00001792,0.00004198,0.00001
 248,-0.00000099,0.00000187,0.00002659,0.00000627,0.00004459,0.00005563
 ,-0.00001954,-0.00002935,-0.00001521,0.00000599,0.00000770,0.00001172,
 0.00000522,-0.00004291,-0.00005653,0.00001327,0.00000193,0.00000078,-0
 .00000209,-0.00000107,0.00000328,0.00001487,0.00000084,-0.00000030,0.0
 0000042,-0.00000137,-0.00000057,-0.00000178,0.00000290,0.,-0.00000204,
 0.00000117,-0.00000067,0.00000090,-0.00000039,-0.00000076,0.00000230,0
 .00000031,0.00000008,-0.00000066,-0.00000064,0.00000035,0.00000029,-0.
 00000002,0.00000147,-0.00000103,0.00000041,0.00000041,-0.00000033,-0.0
 0000052,-0.00000002,-0.00000031,0.00000024,-0.00000466,-0.00000246,-0.
 00000145,0.00000446,0.00000213,0.00000075,-0.00000117,0.00000062,-0.00
 000030,0.00000085,0.00000035,0.00000021,0.00000093,0.00000139,0.000000
 11,-0.00000055,-0.00000111,-0.00000036,0.00000012,0.00000009,0.0000006
 6,-0.00000050,-0.00000076,-0.00000053,-0.00000007,-0.00000031,0.000000
 43,-0.00000037,-0.00000068,-0.00000023,0.00000015,0.00000009,0.0003048
 8,-0.00009564,0.00004261,-0.00069535,-0.00179396,-0.00048063,0.0003247
 5,-0.00017971,0.00022870,-0.00011725,0.00003006,0.00000568,0.00003149,
 -0.00004245,0.00002202,-0.00019709,-0.00000691,-0.00010270,-0.00024517
 ,0.00033353,-0.00022549,-0.00000268,-0.00000528,0.00001448,-0.00002630
 ,0.00001165,0.00002263,0.00000659,0.00002542,0.00002477,0.00108289,0.0
 0005160,0.00020400,0.00160374,0.00449513,-0.00014542,0.01892315,-0.001
 70379,0.00859903,0.00037872,0.00012684,-0.00093850,-0.05354148,0.01248
 556,-0.06310821,-0.00089361,0.00576317,-0.00184869,0.00001387,-0.00060
 451,-0.00023398,-0.02612614,-0.00083830,-0.00030019,0.05968822,-0.0160
 3936,0.05901802,-0.00000299,0.00003649,0.00002519,-0.00001313,-0.00003
 567,0.00000582,0.00010586,-0.00001607,-0.00002928,-0.00000854,0.000041
 03,-0.00004326,-0.00004387,0.00002177,0.00000023,-0.00000090,-0.000027
 60,0.00000065,-0.00004192,-0.00011541,0.00001875,0.00001824,0.00000636
 ,-0.00001656,0.00001183,0.00002680,-0.00000633,0.00004623,0.00009498,-
 0.00006895,-0.00000661,0.00000135,0.00001375,0.00000508,0.00000046,0.0
 0000120,0.00000154,0.00000161,0.00000096,0.00000203,0.00000081,-0.0000
 0311,0.00000135,-0.00000481,-0.00000162,-0.00000374,0.00000737,0.00000
 085,-0.00000401,-0.00000142,-0.00000660,0.00000295,-0.00000068,-0.0000
 0145,0.00000181,-0.00000030,-0.00000040,0.00000061,-0.00000535,0.00000
 259,-0.00000119,-0.00000156,0.00000058,0.00000181,0.00000037,0.0000011
 5,0.00000615,0.00000182,-0.00000174,-0.00001246,0.00000637,0.00001099,
 0.00000770,0.00000130,0.00000457,0.00000126,-0.00000292,-0.00000407,-0
 .00000201,0.00000037,0.00000183,-0.00000285,0.00000089,0.00000068,-0.0
 0000034,0.00000014,0.00000224,0.00000269,-0.00000080,-0.00000189,0.000
 00125,0.00000034,0.00000049,-0.00000022,-0.00000071,-0.00000106,0.0000
 0151,-0.00000069,-0.00000096,0.00000809,-0.00004080,0.00006945,0.00012
 269,0.00013585,-0.00012417,-0.00033328,-0.00012922,0.00010925,0.000142
 70,0.00000196,0.00006782,-0.00007828,-0.00002065,0.00002324,0.00004531
 ,0.00003239,-0.00003505,0.00003779,-0.00001680,0.00002389,0.00000001,0
 .00000208,-0.00000388,0.00001250,-0.00000628,-0.00000001,0.00000039,0.
 00000080,-0.00000318,0.00096132,-0.00043317,0.00067949,-0.00270277,-0.
 00249155,0.00255459,-0.00086616,-0.00047616,0.00076048,0.01018057,-0.0
 1078883,0.01771679,-0.00563679,-0.00085014,-0.00050315,-0.08785045,0.0
 4286343,-0.07420755,0.00094998,0.00061504,-0.00020082,-0.00484027,0.01
 602964,-0.02570414,-0.00050125,0.00072905,-0.00134241,0.08929690,-0.00
 004411,0.00004912,0.00000756,0.00004249,0.00010717,0.00001160,0.000260
 38,0.00010976,0.00006890,0.00001687,-0.00007663,-0.00005935,0.00000216
 ,-0.00005317,-0.00000181,-0.00002469,-0.00003200,-0.00000170,0.0000872
 1,0.00011905,0.00002671,-0.00002172,0.00003821,-0.00000532,-0.00006119
 ,-0.00010058,-0.00001974,-0.00009882,-0.00009652,-0.00001029,0.0000070
 7,0.00000373,0.00000633,0.00001341,0.00001125,0.00002587,0.00000551,0.
 00000149,0.00000668,-0.00002304,-0.00000211,0.00000343,0.00002680,0.00
 003433,0.00004054,-0.00000571,-0.00000335,-0.00001218,0.00000435,0.000
 00739,0.00000232,-0.00000835,-0.00000370,-0.00000969,-0.00000088,-0.00
 000043,-0.00000045,0.00000319,-0.00000161,0.00001406,-0.00000161,-0.00
 000692,-0.00000418,-0.00000210,-0.00000216,-0.00000058,-0.00001852,-0.
 00000837,-0.00001455,0.00000066,-0.00001716,-0.00002360,-0.00000793,-0
 .00000052,-0.00000294,0.00000044,0.00000749,0.00001198,-0.00000223,0.0
 0000153,-0.00000095,0.00001220,-0.00000182,-0.00000633,0.00000019,-0.0
 0000160,-0.00000257,-0.00000902,-0.00000243,-0.00000247,-0.00000242,-0
 .00000050,0.00000062,0.00000077,-0.00000042,0.00000010,-0.00000127,0.0
 0000028,0.00000038,-0.00000863,-0.00000988,0.00007908,0.00009835,-0.00
 020302,-0.00034466,-0.00028084,-0.00033327,0.00000792,0.00012004,-0.00
 023976,-0.00016513,-0.00005130,-0.00002428,0.00006085,0.00004488,-0.00
 003090,-0.00005493,0.00000329,0.00002981,0.00001615,-0.00000267,-0.000
 01810,0.00000227,-0.00000158,0.00006626,0.00005593,0.00000801,0.000002
 21,0.00001388,0.00024498,0.00021158,0.00091871,-0.00288777,0.00462315,
 0.00360676,-0.00014173,-0.00053231,-0.00042225,0.00594802,-0.00368551,
 0.01136469,-0.00028126,0.00445828,0.00191163,0.04287344,-0.10911611,0.
 12174883,0.00010627,-0.00281230,-0.00254048,-0.00117547,0.00205036,-0.
 00005679,-0.00008433,0.00021156,0.00015263,-0.04523581,0.10740916,0.00
 003074,-0.00014252,-0.00000354,-0.00005879,-0.00010967,-0.00000415,-0.
 00012260,0.00012110,0.00003880,-0.00001034,-0.00009221,-0.00000121,0.0
 0009815,0.00001247,0.00000716,0.00000121,0.00013127,-0.00001130,0.0001
 2800,0.00041185,0.00001608,-0.00009760,-0.00011176,0.00002497,0.000078
 84,0.00010794,0.00000572,-0.00014494,-0.00038830,0.00009576,0.00000352
 ,0.00000814,-0.00001745,-0.00002410,-0.00001765,-0.00000870,-0.0000004
 0,-0.00000131,-0.00000206,0.00002243,0.00000377,-0.00000938,-0.0000151
 8,-0.00004045,-0.00004155,-0.00000125,0.00000515,0.00001712,-0.0000093
 6,-0.00000730,0.00000012,0.00001186,0.00000118,0.00000390,0.00000303,0
 .00000136,-0.00000039,-0.00000341,0.00000285,-0.00001092,-0.00000058,0
 .00000421,0.00000126,0.00000217,0.00000308,0.00000053,0.00003453,-0.00
 001400,0.00000195,-0.00002689,0.00004015,0.00003904,0.00002514,0.00000
 061,0.00000976,0.00000163,-0.00001471,-0.00001357,-0.00000198,0.000000
 44,0.00000600,-0.00001331,-0.00000121,0.00000499,-0.00000263,0.0000064
 7,0.00000257,0.00001357,-0.00000306,-0.00000175,0.00000325,0.00000170,
 -0.00000086,-0.00000023,0.00000079,-0.00000394,0.00000254,0.00000007,-
 0.00000197,-0.00000527,0.00003242,-0.00000737,-0.00003777,-0.00030749,
 -0.00002588,0.00053968,-0.00001259,-0.00011976,-0.00010006,-0.00012003
 ,-0.00016595,0.00004701,0.00003519,-0.00002767,-0.00002413,-0.00002824
 ,-0.00003016,-0.00000419,0.00001318,0.00002192,0.00000697,-0.00000229,
 -0.00001189,-0.00001236,0.00005613,0.00000905,-0.00000965,0.00001066,-
 0.00000972,-0.00108668,0.00073997,-0.00049788,0.00295925,0.00409731,0.
 00136798,0.00062317,-0.00044869,0.00006297,-0.00770301,0.00883259,-0.0
 1155069,-0.00150604,0.00172708,0.00288837,-0.07351261,0.12135161,-0.23
 213470,0.00013910,-0.00250374,-0.00059532,0.00028081,0.00281776,-0.002
 14311,0.00001192,0.00029804,-0.00013729,0.07960824,-0.13453285,0.24339
 259,0.00000338,0.00003075,0.00001063,0.00005539,0.00014504,-0.00000738
 ,-0.00001351,0.00004704,0.00006219,0.00004594,-0.00006409,0.00003401,0
 .00002817,-0.00004979,0.00001323,-0.00001169,-0.00004847,0.00000087,0.
 00007999,0.00000656,-0.00003431,0.00000323,0.00006729,0.00000773,-0.00
 007209,-0.00012611,-0.00000114,-0.00006960,0.00002441,0.00005000,0.000
 00859,-0.00000537,-0.00000396,0.00000119,0.00001004,-0.00000340,0.,-0.
 00000013,0.00000190,-0.00002254,-0.00000515,0.00000989,0.00001501,0.00
 003667,0.00003869,0.00000751,-0.00001210,-0.00001468,0.00001099,0.0000
 0789,0.00000698,-0.00001295,-0.00000063,-0.00000266,-0.00000484,-0.000
 00038,0.00000066,0.00000307,0.00000405,0.00000719,0.00000179,-0.000001
 97,-0.00000202,-0.00000401,-0.00000284,-0.00000188,-0.00003335,0.00000
 224,-0.00000051,0.00003464,-0.00003415,-0.00004563,-0.00002975,-0.0000
 0191,-0.00001236,-0.00000305,0.00001300,0.00001825,0.00000399,-0.00000
 068,-0.00000575,0.00001465,-0.00000072,-0.00000599,0.00000207,-0.00000
 396,-0.00000594,-0.00001386,0.00000203,0.00000354,-0.00000427,-0.00000
 155,-0.00000004,0.00000043,0.00000065,0.00000359,-0.00000377,0.0000010
 1,0.00000225,-0.00003998,0.00004595,-0.00006705,0.00057008,0.00000227,
 -0.00011189,-0.00010906,0.00008220,-0.00004727,0.00003989,0.00002947,-
 0.00003545,0.00009076,-0.00000823,0.00002969,-0.00006518,-0.00006098,0
 .00009711,-0.00001314,0.00000049,-0.00001240,0.00000153,0.00001078,-0.
 00001393,0.00000320,-0.00000677,0.00000617,0.00000499,-0.00000307,0.00
 000266,0.00007380,-0.00008883,0.00015991,-0.00038687,0.00073723,-0.001
 12136,0.00005719,0.00089299,-0.00261492,-0.00494698,0.00071574,-0.0028
 3480,0.00998331,0.00593087,-0.00788713,-0.01465450,-0.01521085,0.02095
 730,-0.00067692,-0.00076890,0.00096914,-0.17215262,-0.08406085,0.10758
 940,0.00088469,0.00011084,0.00073468,0.00097585,0.00055404,-0.00014140
 ,0.18033924,-0.00003791,0.00003967,-0.00004380,0.00004341,0.00011591,-
 0.00001034,-0.00003872,-0.00006952,0.00005720,0.00002949,-0.00000754,0
 .00003858,-0.00000363,-0.00005680,-0.00001131,-0.00000159,-0.00003054,
 0.00000913,0.00004882,0.00003433,-0.00001854,-0.00000625,0.00003217,-0
 .00000199,-0.00006447,-0.00011335,-0.00000274,-0.00004797,-0.00002724,
 0.00001317,0.00000766,0.00000045,-0.00000060,0.00000730,0.00001046,0.0
 0002105,0.00000176,-0.00000044,0.00000337,-0.00001879,-0.00000413,0.00
 000623,0.00001686,0.00003167,0.00003048,0.00000075,-0.00000812,-0.0000
 0995,0.00000759,0.00000521,0.00000682,-0.00000882,-0.00000166,-0.00000
 412,-0.00000276,0.00000013,0.00000011,0.00000177,0.00000257,0.00000721
 ,0.00000035,-0.00000218,-0.00000299,-0.00000306,-0.00000173,-0.0000016
 7,-0.00002380,-0.00000483,-0.00000560,0.00001617,-0.00002444,-0.000028
 21,-0.00001647,-0.00000077,-0.00000805,-0.00000165,0.00000985,0.000011
 71,0.00000222,0.00000010,-0.00000239,0.00001142,-0.00000222,-0.0000046
 0,0.00000090,-0.00000204,-0.00000373,-0.00000953,-0.00000007,0.0000002
 1,-0.00000314,-0.00000066,-0.00000003,0.00000069,0.00000046,0.00000146
 ,-0.00000256,0.00000106,0.00000131,-0.00007816,-0.00001071,-0.00000414
 ,-0.00068931,0.00076094,0.00037176,0.00004413,-0.00051199,0.00004115,-
 0.00008729,-0.00007724,-0.00009634,0.00002570,0.00001797,0.00005722,0.
 00001690,-0.00008719,-0.00001187,0.00001890,0.00005652,0.00002366,-0.0
 0000018,-0.00004844,0.00000895,-0.00000054,0.00000090,0.00001287,0.000
 00665,0.00000180,0.00002962,0.00005642,-0.00018556,-0.00011793,0.00056
 471,-0.00034466,-0.00027833,0.00132789,0.00387867,0.00505305,0.0000450
 2,0.00436291,0.00195611,-0.01087997,-0.00448680,0.00741482,0.00197969,
 0.00205313,-0.00106768,0.00011292,0.00033797,0.00020134,-0.08403070,-0
 .09807021,0.09072630,0.00056170,-0.00273059,-0.00236246,0.00004252,-0.
 00213575,-0.00197649,0.09105694,0.09729257,0.00001964,-0.00006240,-0.0
 0001150,-0.00005076,-0.00006658,-0.00001204,-0.00010702,0.00000621,-0.
 00001258,0.00001387,0.00001140,0.00003959,0.00002766,0.00001594,0.0000
 0007,0.00000239,0.00004806,0.00000023,0.00001992,0.00007026,-0.0000114
 0,-0.00002516,-0.00005262,-0.00000416,0.00004454,0.00005438,0.00000465
 ,-0.00001818,-0.00008493,0.00000001,-0.00000401,0.00000330,0.00000189,
 -0.00001757,-0.00001261,-0.00000863,0.00000004,0.00000092,-0.00000070,
 0.00001191,0.00000145,-0.00000603,-0.00000536,-0.00001986,-0.00002078,
 -0.00000295,0.00000596,0.00000836,-0.00000740,-0.00000382,-0.00000351,
 0.00000757,-0.00000061,0.00000023,0.00000289,0.00000027,-0.00000044,-0
 .00000091,-0.00000088,-0.00000355,-0.00000115,0.00000052,0.00000046,0.
 00000205,0.00000164,0.00000120,0.00001989,-0.00000752,-0.00000238,-0.0
 0002265,0.00002183,0.00002809,0.00001850,0.00000248,0.00000787,0.00000
 201,-0.00000942,-0.00000900,-0.00000228,0.00000073,0.00000450,-0.00000
 859,-0.00000022,0.00000299,-0.00000156,0.00000346,0.00000278,0.0000083
 7,-0.00000194,-0.00000264,0.00000242,0.00000106,0.00000005,-0.00000034
 ,-0.00000024,-0.00000294,0.00000262,-0.00000054,-0.00000177,0.00011948
 ,0.00001598,0.00000742,0.00110111,0.00049148,0.00033310,-0.00020079,0.
 00013549,-0.00065179,0.00016746,-0.00010614,0.00007106,-0.00006833,0.0
 0005420,-0.00004135,0.00000945,-0.00002307,-0.00006762,-0.00003995,0.0
 0002128,0.00003021,0.00001242,0.00001393,-0.00006173,-0.00000084,0.000
 01415,-0.00001056,-0.00001204,0.00002736,-0.00002931,0.00018971,-0.000
 21506,0.00009703,-0.00075715,-0.00021922,-0.00038212,-0.00360487,0.004
 91684,-0.00119768,-0.00175240,0.00210382,0.00213169,0.01858029,0.01065
 538,-0.01204738,-0.00550575,-0.00385657,0.00628421,-0.00026460,0.00005
 112,0.00033579,0.10732110,0.09035994,-0.15421842,-0.00004820,-0.002466
 95,-0.00045229,0.00060591,-0.00187062,-0.00042850,-0.11578239,-0.10002
 901,0.16030933\\0.,0.00000012,-0.00000003,0.00000032,-0.00000029,0.000
 00005,-0.00000041,0.00000017,0.00000004,0.00000106,0.00000011,0.,-0.00
 000106,-0.00000010,0.00000003,0.00000042,-0.00000016,0.00000008,-0.000
 00033,0.00000028,0.00000025,0.,-0.00000013,-0.00000012,0.00000016,0.00
 000020,-0.00000002,-0.00000016,-0.00000019,-0.00000008,-0.00000006,-0.
 00000004,0.,0.00000007,0.00000004,0.00000002,0.,-0.00000020,-0.0000000
 4,0.00000008,0.00000012,-0.00000010,-0.00000016,-0.00000043,0.00000009
 ,0.00000008,-0.00000008,-0.00000002,0.00000009,-0.00000010,-0.00000003
 ,0.00000005,-0.00000012,0.00000006,0.00000003,-0.00000019,-0.00000002,
 0.,-0.00000004,0.,0.00000004,-0.00000011,0.,0.00000006,-0.00000019,0.0
 0000001,0.00000035,0.00000025,-0.00000032,-0.00000039,0.,0.00000020,0.
 00000015,-0.00000043,0.00000012,0.00000008,-0.00000009,-0.00000015,-0.
 00000008,-0.00000018,0.00000001,-0.00000013,-0.00000011,0.00000007,-0.
 00000007,-0.00000010,0.00000003,0.00000003,-0.00000015,-0.00000004,0.,
 -0.00000018,0.00000001,-0.00000008,-0.00000013,0.,-0.00000005,-0.00000
 018,0.,0.00000008,0.00000018,0.00000002,-0.00000015,0.00000044,0.00000
 013,0.00000039,-0.00000001,0.00000020,-0.00000008,0.00000009,-0.000000
 15,0.00000013,0.00000012,0.00000007,-0.00000003,0.00000015,-0.00000004
 ,0.,0.00000018,0.00000001,0.00000007,0.00000010,0.00000003,0.00000008,
 0.00000014,0.,0.00000005,0.00000018,0.,-0.00000035,-0.00000025,-0.0000
 0032,0.00000015,0.00000043,0.00000008,-0.00000008,-0.00000012,-0.00000
 011,-0.00000008,0.00000007,-0.00000002,0.,0.00000020,-0.00000004,-0.00
 000008,0.00000010,-0.00000003,0.,0.00000004,0.,-0.00000005,0.00000012,
 0.00000006,-0.00000003,0.00000019,-0.00000002,-0.00000004,0.00000011,0
 .00000001,-0.00000006,0.00000019,0.00000001\\\@
 The archive entry for this job was punched.


 MICHAEL FARADAY, ASKED BY A POLITICIAN WHAT GOOD
 HIS ELECTRICAL DISCOVERIES WERE, REPLIED 
 "AT PRESENT I DO NOT KNOW, BUT ONE DAY YOU WILL BE
 ABLE TO TAX THEM."
 Job cpu time:       3 days 23 hours  8 minutes 15.0 seconds.
 Elapsed time:       0 days  3 hours 58 minutes  5.2 seconds.
 File lengths (MBytes):  RWF=   5436 Int=      0 D2E=      0 Chk=     72 Scr=      1
 Normal termination of Gaussian 16 at Thu Nov 16 14:47:17 2023.
