 Entering Gaussian System, Link 0=g09
 Initial command:
 /apps/software//g09/l1.exe /scratch/nathalia.rosa/82988.cluster.abaxnet/Gau-31837.inp -scrdir=/scratch/nathalia.rosa/82988.cluster.abaxnet/
 Entering Link 1 = /apps/software//g09/l1.exe PID=     31838.
  
 Copyright (c) 1988,1990,1992,1993,1995,1998,2003,2009, Gaussian, Inc.
                  All Rights Reserved.
  
 This is part of the Gaussian(R) 09 program.  It is based on
 the Gaussian(R) 03 system (copyright 2003, Gaussian, Inc.),
 the Gaussian(R) 98 system (copyright 1998, Gaussian, Inc.),
 the Gaussian(R) 94 system (copyright 1995, Gaussian, Inc.),
 the Gaussian 92(TM) system (copyright 1992, Gaussian, Inc.),
 the Gaussian 90(TM) system (copyright 1990, Gaussian, Inc.),
 the Gaussian 88(TM) system (copyright 1988, Gaussian, Inc.),
 the Gaussian 86(TM) system (copyright 1986, Carnegie Mellon
 University), and the Gaussian 82(TM) system (copyright 1983,
 Carnegie Mellon University). Gaussian is a federally registered
 trademark of Gaussian, Inc.
  
 This software contains proprietary and confidential information,
 including trade secrets, belonging to Gaussian, Inc.
  
 This software is provided under written license and may be
 used, copied, transmitted, or stored only in accord with that
 written license.
  
 The following legend is applicable only to US Government
 contracts under FAR:
  
                    RESTRICTED RIGHTS LEGEND
  
 Use, reproduction and disclosure by the US Government is
 subject to restrictions as set forth in subparagraphs (a)
 and (c) of the Commercial Computer Software - Restricted
 Rights clause in FAR 52.227-19.
  
 Gaussian, Inc.
 340 Quinnipiac St., Bldg. 40, Wallingford CT 06492
  
  
 ---------------------------------------------------------------
 Warning -- This program may not be used in any manner that
 competes with the business of Gaussian, Inc. or will provide
 assistance to any competitor of Gaussian, Inc.  The licensee
 of this program is prohibited from giving any competitor of
 Gaussian, Inc. access to this program.  By using this program,
 the user acknowledges that Gaussian, Inc. is engaged in the
 business of creating and licensing software in the field of
 computational chemistry and represents and warrants to the
 licensee that it is not a competitor of Gaussian, Inc. and that
 it will not use this program in any manner prohibited above.
 ---------------------------------------------------------------
  

 Cite this work as:
 Gaussian 09, Revision A.02,
 M. J. Frisch, G. W. Trucks, H. B. Schlegel, G. E. Scuseria, 
 M. A. Robb, J. R. Cheeseman, G. Scalmani, V. Barone, B. Mennucci, 
 G. A. Petersson, H. Nakatsuji, M. Caricato, X. Li, H. P. Hratchian, 
 A. F. Izmaylov, J. Bloino, G. Zheng, J. L. Sonnenberg, M. Hada, 
 M. Ehara, K. Toyota, R. Fukuda, J. Hasegawa, M. Ishida, T. Nakajima, 
 Y. Honda, O. Kitao, H. Nakai, T. Vreven, J. A. Montgomery, Jr., 
 J. E. Peralta, F. Ogliaro, M. Bearpark, J. J. Heyd, E. Brothers, 
 K. N. Kudin, V. N. Staroverov, R. Kobayashi, J. Normand, 
 K. Raghavachari, A. Rendell, J. C. Burant, S. S. Iyengar, J. Tomasi, 
 M. Cossi, N. Rega, J. M. Millam, M. Klene, J. E. Knox, J. B. Cross, 
 V. Bakken, C. Adamo, J. Jaramillo, R. Gomperts, R. E. Stratmann, 
 O. Yazyev, A. J. Austin, R. Cammi, C. Pomelli, J. W. Ochterski, 
 R. L. Martin, K. Morokuma, V. G. Zakrzewski, G. A. Voth, 
 P. Salvador, J. J. Dannenberg, S. Dapprich, A. D. Daniels, 
 O. Farkas, J. B. Foresman, J. V. Ortiz, J. Cioslowski, 
 and D. J. Fox, Gaussian, Inc., Wallingford CT, 2009.
 
 ******************************************
 Gaussian 09:  EM64L-G09RevA.02 11-Jun-2009
                13-Sep-2023 
 ******************************************
 %chk=/home/nathalia.rosa/DPP-SUB/DPP-SUB-4b/DPP-SUB-4B-CATION.chk
 -----------------------------------------------------------
 # opt=tight freq b3lyp/6-31+g(d,p) nosymm geom=connectivity
 -----------------------------------------------------------
 1/7=10,14=-1,18=20,19=15,26=3,38=1,57=2/1,3;
 2/9=110,12=2,15=1,17=6,18=5,40=1/2;
 3/5=1,6=6,7=111,11=2,16=1,25=1,30=1,71=1,74=-5/1,2,3;
 4//1;
 5/5=2,38=5/2;
 6/7=2,8=2,9=2,10=2,28=1/1;
 7/30=1/1,2,3,16;
 1/7=10,14=-1,18=20,19=15/3(2);
 2/9=110,15=1/2;
 99//99;
 2/9=110,15=1/2;
 3/5=1,6=6,7=111,11=2,16=1,25=1,30=1,71=1,74=-5/1,2,3;
 4/5=5,16=3/1;
 5/5=2,38=5/2;
 7/30=1/1,2,3,16;
 1/7=10,14=-1,18=20,19=15/3(-5);
 2/9=110,15=1/2;
 6/7=2,8=2,9=2,10=2,19=2,28=1/1;
 99/9=1/99;
 -------
 Energy:
 -------
 Symbolic Z-matrix:
 Charge =  1 Multiplicity = 2
 N                     1.35556  -0.43339  -0.0764 
 C                     0.70668  -0.29355   1.18257 
 C                     2.30566   0.56331  -0.31424 
 C                     2.32264   1.36237   0.82476 
 C                     1.37679   0.85587   1.76873 
 C                     1.49636   1.56305   2.96113 
 C                     3.04613   2.46394   1.43868 
 N                     2.51177   2.50109   2.75733 
 O                    -0.20697  -1.01892   1.56215 
 O                     3.89652   3.24599   1.02618 
 H                     2.67343   3.30357   3.34788 
 H                     0.95286  -1.01975  -0.79255 
 C                     4.06378   0.15125  -3.62542 
 C                     3.29088  -0.35856  -2.51211 
 C                     2.9253   -1.7381   -2.5179 
 C                     3.26829  -2.53248  -3.58809 
 H                     2.99385  -3.58317  -3.58046 
 C                     3.99376  -2.01295  -4.70184 
 H                     4.24119  -2.67159  -5.52872 
 C                     4.39553  -0.70114  -4.72138 
 H                     4.96856  -0.30325  -5.55377 
 C                     3.06155   0.6331   -1.52762 
 C                     4.41218   1.48838  -3.45473 
 H                     4.99112   2.10816  -4.12645 
 S                     3.83619   2.12962  -1.98382 
 C                     1.15194   1.91168   5.49328 
 C                     0.12406   1.63018   6.47348 
 C                     0.29551   2.03301   7.83212 
 H                    -0.48743   1.82288   8.55488 
 C                     1.45101   2.67141   8.2062 
 H                     1.59355   2.98201   9.23671 
 C                     2.48618   2.9136    7.25415 
 H                     3.40622   3.38717   7.58364 
 C                     2.35229   2.54494   5.93501 
 C                    -0.95629   0.94744   5.921 
 H                    -1.84975   0.60903   6.42866 
 C                     0.7995    1.44032   4.20521 
 S                    -0.74906   0.63587   4.25777 
 H                     2.41751  -2.18145  -1.66941 
 H                     3.18058   2.70113   5.25393 
 

 GradGradGradGradGradGradGradGradGradGradGradGradGradGradGradGradGradGrad
 Berny optimization.
 Initialization pass.
                           ----------------------------
                           !    Initial Parameters    !
                           ! (Angstroms and Degrees)  !
 --------------------------                            --------------------------
 ! Name  Definition              Value          Derivative Info.                !
 --------------------------------------------------------------------------------
 ! R1    R(1,2)                  1.4232         estimate D2E/DX2                !
 ! R2    R(1,3)                  1.3974         estimate D2E/DX2                !
 ! R3    R(1,12)                 1.0094         estimate D2E/DX2                !
 ! R4    R(2,5)                  1.4539         estimate D2E/DX2                !
 ! R5    R(2,9)                  1.2268         estimate D2E/DX2                !
 ! R6    R(3,4)                  1.3914         estimate D2E/DX2                !
 ! R7    R(3,22)                 1.4313         estimate D2E/DX2                !
 ! R8    R(4,5)                  1.4291         estimate D2E/DX2                !
 ! R9    R(4,7)                  1.4539         estimate D2E/DX2                !
 ! R10   R(5,6)                  1.3915         estimate D2E/DX2                !
 ! R11   R(6,8)                  1.3973         estimate D2E/DX2                !
 ! R12   R(6,37)                 1.4312         estimate D2E/DX2                !
 ! R13   R(7,8)                  1.4233         estimate D2E/DX2                !
 ! R14   R(7,10)                 1.2268         estimate D2E/DX2                !
 ! R15   R(8,11)                 1.0094         estimate D2E/DX2                !
 ! R16   R(13,14)                1.448          estimate D2E/DX2                !
 ! R17   R(13,20)                1.4275         estimate D2E/DX2                !
 ! R18   R(13,23)                1.3923         estimate D2E/DX2                !
 ! R19   R(14,15)                1.4272         estimate D2E/DX2                !
 ! R20   R(14,22)                1.416          estimate D2E/DX2                !
 ! R21   R(15,16)                1.3762         estimate D2E/DX2                !
 ! R22   R(15,39)                1.0837         estimate D2E/DX2                !
 ! R23   R(16,17)                1.086          estimate D2E/DX2                !
 ! R24   R(16,18)                1.4271         estimate D2E/DX2                !
 ! R25   R(18,19)                1.0857         estimate D2E/DX2                !
 ! R26   R(18,20)                1.3721         estimate D2E/DX2                !
 ! R27   R(20,21)                1.0861         estimate D2E/DX2                !
 ! R28   R(22,25)                1.7458         estimate D2E/DX2                !
 ! R29   R(23,24)                1.0819         estimate D2E/DX2                !
 ! R30   R(23,25)                1.7049         estimate D2E/DX2                !
 ! R31   R(26,27)                1.448          estimate D2E/DX2                !
 ! R32   R(26,34)                1.4272         estimate D2E/DX2                !
 ! R33   R(26,37)                1.4162         estimate D2E/DX2                !
 ! R34   R(27,28)                1.4274         estimate D2E/DX2                !
 ! R35   R(27,35)                1.3923         estimate D2E/DX2                !
 ! R36   R(28,29)                1.0861         estimate D2E/DX2                !
 ! R37   R(28,30)                1.3721         estimate D2E/DX2                !
 ! R38   R(30,31)                1.0857         estimate D2E/DX2                !
 ! R39   R(30,32)                1.4271         estimate D2E/DX2                !
 ! R40   R(32,33)                1.086          estimate D2E/DX2                !
 ! R41   R(32,34)                1.3762         estimate D2E/DX2                !
 ! R42   R(34,40)                1.0837         estimate D2E/DX2                !
 ! R43   R(35,36)                1.0819         estimate D2E/DX2                !
 ! R44   R(35,38)                1.7048         estimate D2E/DX2                !
 ! R45   R(37,38)                1.7458         estimate D2E/DX2                !
 ! A1    A(2,1,3)              112.9838         estimate D2E/DX2                !
 ! A2    A(2,1,12)             120.185          estimate D2E/DX2                !
 ! A3    A(3,1,12)             124.3905         estimate D2E/DX2                !
 ! A4    A(1,2,5)              102.9543         estimate D2E/DX2                !
 ! A5    A(1,2,9)              123.7211         estimate D2E/DX2                !
 ! A6    A(5,2,9)              133.3121         estimate D2E/DX2                !
 ! A7    A(1,3,4)              106.1749         estimate D2E/DX2                !
 ! A8    A(1,3,22)             122.5585         estimate D2E/DX2                !
 ! A9    A(4,3,22)             131.2627         estimate D2E/DX2                !
 ! A10   A(3,4,5)              109.214          estimate D2E/DX2                !
 ! A11   A(3,4,7)              141.8907         estimate D2E/DX2                !
 ! A12   A(5,4,7)              108.6005         estimate D2E/DX2                !
 ! A13   A(2,5,4)              108.5993         estimate D2E/DX2                !
 ! A14   A(2,5,6)              141.8946         estimate D2E/DX2                !
 ! A15   A(4,5,6)              109.2112         estimate D2E/DX2                !
 ! A16   A(5,6,8)              106.1783         estimate D2E/DX2                !
 ! A17   A(5,6,37)             131.2591         estimate D2E/DX2                !
 ! A18   A(8,6,37)             122.5587         estimate D2E/DX2                !
 ! A19   A(4,7,8)              102.954          estimate D2E/DX2                !
 ! A20   A(4,7,10)             133.3128         estimate D2E/DX2                !
 ! A21   A(8,7,10)             123.7208         estimate D2E/DX2                !
 ! A22   A(6,8,7)              112.9813         estimate D2E/DX2                !
 ! A23   A(6,8,11)             124.3853         estimate D2E/DX2                !
 ! A24   A(7,8,11)             120.1769         estimate D2E/DX2                !
 ! A25   A(14,13,20)           120.272          estimate D2E/DX2                !
 ! A26   A(14,13,23)           112.1755         estimate D2E/DX2                !
 ! A27   A(20,13,23)           127.5483         estimate D2E/DX2                !
 ! A28   A(13,14,15)           118.29           estimate D2E/DX2                !
 ! A29   A(13,14,22)           111.9884         estimate D2E/DX2                !
 ! A30   A(15,14,22)           129.6626         estimate D2E/DX2                !
 ! A31   A(14,15,16)           119.8196         estimate D2E/DX2                !
 ! A32   A(14,15,39)           120.8185         estimate D2E/DX2                !
 ! A33   A(16,15,39)           119.3073         estimate D2E/DX2                !
 ! A34   A(15,16,17)           119.3423         estimate D2E/DX2                !
 ! A35   A(15,16,18)           121.5634         estimate D2E/DX2                !
 ! A36   A(17,16,18)           119.0883         estimate D2E/DX2                !
 ! A37   A(16,18,19)           119.3            estimate D2E/DX2                !
 ! A38   A(16,18,20)           120.531          estimate D2E/DX2                !
 ! A39   A(19,18,20)           120.1602         estimate D2E/DX2                !
 ! A40   A(13,20,18)           119.4656         estimate D2E/DX2                !
 ! A41   A(13,20,21)           119.491          estimate D2E/DX2                !
 ! A42   A(18,20,21)           121.0416         estimate D2E/DX2                !
 ! A43   A(3,22,14)            129.8499         estimate D2E/DX2                !
 ! A44   A(3,22,25)            119.8459         estimate D2E/DX2                !
 ! A45   A(14,22,25)           110.2904         estimate D2E/DX2                !
 ! A46   A(13,23,24)           127.4423         estimate D2E/DX2                !
 ! A47   A(13,23,25)           112.4859         estimate D2E/DX2                !
 ! A48   A(24,23,25)           120.0659         estimate D2E/DX2                !
 ! A49   A(22,25,23)            93.0347         estimate D2E/DX2                !
 ! A50   A(27,26,34)           118.2797         estimate D2E/DX2                !
 ! A51   A(27,26,37)           111.9839         estimate D2E/DX2                !
 ! A52   A(34,26,37)           129.68           estimate D2E/DX2                !
 ! A53   A(26,27,28)           120.2781         estimate D2E/DX2                !
 ! A54   A(26,27,35)           112.1816         estimate D2E/DX2                !
 ! A55   A(28,27,35)           127.5365         estimate D2E/DX2                !
 ! A56   A(27,28,29)           119.4871         estimate D2E/DX2                !
 ! A57   A(27,28,30)           119.4685         estimate D2E/DX2                !
 ! A58   A(29,28,30)           121.0428         estimate D2E/DX2                !
 ! A59   A(28,30,31)           120.1614         estimate D2E/DX2                !
 ! A60   A(28,30,32)           120.5265         estimate D2E/DX2                !
 ! A61   A(31,30,32)           119.3032         estimate D2E/DX2                !
 ! A62   A(30,32,33)           119.0868         estimate D2E/DX2                !
 ! A63   A(30,32,34)           121.5622         estimate D2E/DX2                !
 ! A64   A(33,32,34)           119.345          estimate D2E/DX2                !
 ! A65   A(26,34,32)           119.8248         estimate D2E/DX2                !
 ! A66   A(26,34,40)           120.8145         estimate D2E/DX2                !
 ! A67   A(32,34,40)           119.3055         estimate D2E/DX2                !
 ! A68   A(27,35,36)           127.4438         estimate D2E/DX2                !
 ! A69   A(27,35,38)           112.4842         estimate D2E/DX2                !
 ! A70   A(36,35,38)           120.0664         estimate D2E/DX2                !
 ! A71   A(6,37,26)            129.8592         estimate D2E/DX2                !
 ! A72   A(6,37,38)            119.8387         estimate D2E/DX2                !
 ! A73   A(26,37,38)           110.2875         estimate D2E/DX2                !
 ! A74   A(35,38,37)            93.037          estimate D2E/DX2                !
 ! D1    D(3,1,2,5)             -2.7098         estimate D2E/DX2                !
 ! D2    D(3,1,2,9)            176.1573         estimate D2E/DX2                !
 ! D3    D(12,1,2,5)          -165.7452         estimate D2E/DX2                !
 ! D4    D(12,1,2,9)            13.1219         estimate D2E/DX2                !
 ! D5    D(2,1,3,4)              1.8122         estimate D2E/DX2                !
 ! D6    D(2,1,3,22)          -178.8322         estimate D2E/DX2                !
 ! D7    D(12,1,3,4)           164.0154         estimate D2E/DX2                !
 ! D8    D(12,1,3,22)          -16.6289         estimate D2E/DX2                !
 ! D9    D(1,2,5,4)              2.5448         estimate D2E/DX2                !
 ! D10   D(1,2,5,6)           -170.0665         estimate D2E/DX2                !
 ! D11   D(9,2,5,4)           -176.1602         estimate D2E/DX2                !
 ! D12   D(9,2,5,6)             11.2285         estimate D2E/DX2                !
 ! D13   D(1,3,4,5)             -0.0613         estimate D2E/DX2                !
 ! D14   D(1,3,4,7)            172.5249         estimate D2E/DX2                !
 ! D15   D(22,3,4,5)          -179.3388         estimate D2E/DX2                !
 ! D16   D(22,3,4,7)            -6.7525         estimate D2E/DX2                !
 ! D17   D(1,3,22,14)          -17.8595         estimate D2E/DX2                !
 ! D18   D(1,3,22,25)          160.6517         estimate D2E/DX2                !
 ! D19   D(4,3,22,14)          161.3172         estimate D2E/DX2                !
 ! D20   D(4,3,22,25)          -20.1716         estimate D2E/DX2                !
 ! D21   D(3,4,5,2)             -1.6233         estimate D2E/DX2                !
 ! D22   D(3,4,5,6)            173.5558         estimate D2E/DX2                !
 ! D23   D(7,4,5,2)           -176.8035         estimate D2E/DX2                !
 ! D24   D(7,4,5,6)             -1.6244         estimate D2E/DX2                !
 ! D25   D(3,4,7,8)           -170.0544         estimate D2E/DX2                !
 ! D26   D(3,4,7,10)            11.2409         estimate D2E/DX2                !
 ! D27   D(5,4,7,8)              2.5591         estimate D2E/DX2                !
 ! D28   D(5,4,7,10)          -176.1456         estimate D2E/DX2                !
 ! D29   D(2,5,6,8)            172.5094         estimate D2E/DX2                !
 ! D30   D(2,5,6,37)            -6.7633         estimate D2E/DX2                !
 ! D31   D(4,5,6,8)             -0.0746         estimate D2E/DX2                !
 ! D32   D(4,5,6,37)          -179.3474         estimate D2E/DX2                !
 ! D33   D(5,6,8,7)              1.8358         estimate D2E/DX2                !
 ! D34   D(5,6,8,11)           163.9818         estimate D2E/DX2                !
 ! D35   D(37,6,8,7)          -178.8128         estimate D2E/DX2                !
 ! D36   D(37,6,8,11)          -16.6669         estimate D2E/DX2                !
 ! D37   D(5,6,37,26)          161.5253         estimate D2E/DX2                !
 ! D38   D(5,6,37,38)          -20.0092         estimate D2E/DX2                !
 ! D39   D(8,6,37,26)          -17.646          estimate D2E/DX2                !
 ! D40   D(8,6,37,38)          160.8194         estimate D2E/DX2                !
 ! D41   D(4,7,8,6)             -2.7334         estimate D2E/DX2                !
 ! D42   D(4,7,8,11)          -165.7146         estimate D2E/DX2                !
 ! D43   D(10,7,8,6)           176.1335         estimate D2E/DX2                !
 ! D44   D(10,7,8,11)           13.1523         estimate D2E/DX2                !
 ! D45   D(20,13,14,15)          2.6328         estimate D2E/DX2                !
 ! D46   D(20,13,14,22)       -179.8925         estimate D2E/DX2                !
 ! D47   D(23,13,14,15)       -176.6747         estimate D2E/DX2                !
 ! D48   D(23,13,14,22)          0.8            estimate D2E/DX2                !
 ! D49   D(14,13,20,18)         -0.9972         estimate D2E/DX2                !
 ! D50   D(14,13,20,21)        179.4808         estimate D2E/DX2                !
 ! D51   D(23,13,20,18)        178.194          estimate D2E/DX2                !
 ! D52   D(23,13,20,21)         -1.3281         estimate D2E/DX2                !
 ! D53   D(14,13,23,24)        179.458          estimate D2E/DX2                !
 ! D54   D(14,13,23,25)          0.3506         estimate D2E/DX2                !
 ! D55   D(20,13,23,24)          0.2124         estimate D2E/DX2                !
 ! D56   D(20,13,23,25)       -178.895          estimate D2E/DX2                !
 ! D57   D(13,14,15,16)         -2.2935         estimate D2E/DX2                !
 ! D58   D(13,14,15,39)        175.0003         estimate D2E/DX2                !
 ! D59   D(22,14,15,16)       -179.2513         estimate D2E/DX2                !
 ! D60   D(22,14,15,39)         -1.9574         estimate D2E/DX2                !
 ! D61   D(13,14,22,3)         177.0704         estimate D2E/DX2                !
 ! D62   D(13,14,22,25)         -1.5528         estimate D2E/DX2                !
 ! D63   D(15,14,22,3)          -5.8185         estimate D2E/DX2                !
 ! D64   D(15,14,22,25)        175.5583         estimate D2E/DX2                !
 ! D65   D(14,15,16,17)        179.4642         estimate D2E/DX2                !
 ! D66   D(14,15,16,18)          0.3593         estimate D2E/DX2                !
 ! D67   D(39,15,16,17)          2.1293         estimate D2E/DX2                !
 ! D68   D(39,15,16,18)       -176.9755         estimate D2E/DX2                !
 ! D69   D(15,16,18,19)       -179.7236         estimate D2E/DX2                !
 ! D70   D(15,16,18,20)          1.354          estimate D2E/DX2                !
 ! D71   D(17,16,18,19)          1.1693         estimate D2E/DX2                !
 ! D72   D(17,16,18,20)       -177.7531         estimate D2E/DX2                !
 ! D73   D(16,18,20,13)         -0.9954         estimate D2E/DX2                !
 ! D74   D(16,18,20,21)        178.519          estimate D2E/DX2                !
 ! D75   D(19,18,20,13)       -179.9085         estimate D2E/DX2                !
 ! D76   D(19,18,20,21)         -0.3941         estimate D2E/DX2                !
 ! D77   D(3,22,25,23)        -177.2778         estimate D2E/DX2                !
 ! D78   D(14,22,25,23)          1.5037         estimate D2E/DX2                !
 ! D79   D(13,23,25,22)         -1.0707         estimate D2E/DX2                !
 ! D80   D(24,23,25,22)        179.7482         estimate D2E/DX2                !
 ! D81   D(34,26,27,28)          2.6532         estimate D2E/DX2                !
 ! D82   D(34,26,27,35)       -176.6908         estimate D2E/DX2                !
 ! D83   D(37,26,27,28)       -179.8131         estimate D2E/DX2                !
 ! D84   D(37,26,27,35)          0.8429         estimate D2E/DX2                !
 ! D85   D(27,26,34,32)         -2.334          estimate D2E/DX2                !
 ! D86   D(27,26,34,40)        174.9449         estimate D2E/DX2                !
 ! D87   D(37,26,34,32)       -179.362          estimate D2E/DX2                !
 ! D88   D(37,26,34,40)         -2.0831         estimate D2E/DX2                !
 ! D89   D(27,26,37,6)         176.9933         estimate D2E/DX2                !
 ! D90   D(27,26,37,38)         -1.5876         estimate D2E/DX2                !
 ! D91   D(34,26,37,6)          -5.829          estimate D2E/DX2                !
 ! D92   D(34,26,37,38)        175.5901         estimate D2E/DX2                !
 ! D93   D(26,27,28,29)        179.476          estimate D2E/DX2                !
 ! D94   D(26,27,28,30)         -0.9725         estimate D2E/DX2                !
 ! D95   D(35,27,28,29)         -1.29           estimate D2E/DX2                !
 ! D96   D(35,27,28,30)        178.2615         estimate D2E/DX2                !
 ! D97   D(26,27,35,36)        179.4443         estimate D2E/DX2                !
 ! D98   D(26,27,35,38)          0.3191         estimate D2E/DX2                !
 ! D99   D(28,27,35,36)          0.1587         estimate D2E/DX2                !
 ! D100  D(28,27,35,38)       -178.9665         estimate D2E/DX2                !
 ! D101  D(27,28,30,31)       -179.952          estimate D2E/DX2                !
 ! D102  D(27,28,30,32)         -1.0456         estimate D2E/DX2                !
 ! D103  D(29,28,30,31)         -0.4076         estimate D2E/DX2                !
 ! D104  D(29,28,30,32)        178.4988         estimate D2E/DX2                !
 ! D105  D(28,30,32,33)       -177.7186         estimate D2E/DX2                !
 ! D106  D(28,30,32,34)          1.3844         estimate D2E/DX2                !
 ! D107  D(31,30,32,33)          1.1971         estimate D2E/DX2                !
 ! D108  D(31,30,32,34)       -179.6999         estimate D2E/DX2                !
 ! D109  D(30,32,34,26)          0.3759         estimate D2E/DX2                !
 ! D110  D(30,32,34,40)       -176.9443         estimate D2E/DX2                !
 ! D111  D(33,32,34,26)        179.4766         estimate D2E/DX2                !
 ! D112  D(33,32,34,40)          2.1564         estimate D2E/DX2                !
 ! D113  D(27,35,38,37)         -1.061          estimate D2E/DX2                !
 ! D114  D(36,35,38,37)        179.7416         estimate D2E/DX2                !
 ! D115  D(6,37,38,35)        -177.2257         estimate D2E/DX2                !
 ! D116  D(26,37,38,35)          1.5185         estimate D2E/DX2                !
 --------------------------------------------------------------------------------
 Trust Radius=3.00D-01 FncErr=1.00D-07 GrdErr=1.00D-06
 Number of steps in this run= 240 maximum allowed number of steps= 240.
 GradGradGradGradGradGradGradGradGradGradGradGradGradGradGradGradGradGrad

                          Input orientation:                          
 ---------------------------------------------------------------------
 Center     Atomic      Atomic             Coordinates (Angstroms)
 Number     Number       Type             X           Y           Z
 ---------------------------------------------------------------------
      1          7           0        1.355555   -0.433386   -0.076395
      2          6           0        0.706675   -0.293545    1.182565
      3          6           0        2.305660    0.563309   -0.314243
      4          6           0        2.322644    1.362367    0.824757
      5          6           0        1.376792    0.855873    1.768728
      6          6           0        1.496355    1.563046    2.961134
      7          6           0        3.046131    2.463938    1.438682
      8          7           0        2.511768    2.501091    2.757331
      9          8           0       -0.206973   -1.018922    1.562151
     10          8           0        3.896520    3.245991    1.026185
     11          1           0        2.673427    3.303566    3.347883
     12          1           0        0.952863   -1.019753   -0.792550
     13          6           0        4.063776    0.151248   -3.625415
     14          6           0        3.290879   -0.358562   -2.512107
     15          6           0        2.925297   -1.738098   -2.517900
     16          6           0        3.268285   -2.532478   -3.588085
     17          1           0        2.993851   -3.583169   -3.580458
     18          6           0        3.993762   -2.012953   -4.701844
     19          1           0        4.241187   -2.671592   -5.528724
     20          6           0        4.395530   -0.701136   -4.721379
     21          1           0        4.968556   -0.303253   -5.553767
     22          6           0        3.061554    0.633096   -1.527618
     23          6           0        4.412177    1.488380   -3.454733
     24          1           0        4.991121    2.108156   -4.126452
     25         16           0        3.836186    2.129625   -1.983818
     26          6           0        1.151938    1.911681    5.493276
     27          6           0        0.124056    1.630182    6.473475
     28          6           0        0.295510    2.033012    7.832117
     29          1           0       -0.487427    1.822882    8.554882
     30          6           0        1.451014    2.671414    8.206196
     31          1           0        1.593551    2.982011    9.236713
     32          6           0        2.486178    2.913598    7.254151
     33          1           0        3.406220    3.387173    7.583641
     34          6           0        2.352291    2.544937    5.935013
     35          6           0       -0.956291    0.947442    5.921001
     36          1           0       -1.849749    0.609025    6.428661
     37          6           0        0.799499    1.440322    4.205208
     38         16           0       -0.749063    0.635874    4.257771
     39          1           0        2.417505   -2.181449   -1.669414
     40          1           0        3.180576    2.701130    5.253927
 ---------------------------------------------------------------------
                    Distance matrix (angstroms):
                    1          2          3          4          5
     1  N    0.000000
     2  C    1.423229   0.000000
     3  C    1.397380   2.351890   0.000000
     4  C    2.229813   2.341245   1.391439   0.000000
     5  C    2.251026   1.453893   2.299382   1.429074   0.000000
     6  C    3.637602   2.689578   3.518884   2.299376   1.391482
     7  C    3.680760   3.625240   2.689504   1.453890   2.341260
     8  N    4.240046   3.680793   3.637588   2.251067   2.229854
     9  O    2.338628   1.226788   3.512497   3.551514   2.462893
    10  O    4.605432   4.767377   3.394756   2.462864   3.551487
    11  H    5.237106   4.636370   4.588619   3.202728   3.188447
    12  H    1.009388   2.118742   2.136568   3.188491   3.202785
    13  C    4.502422   5.880871   3.771555   4.929744   6.067385
    14  C    3.111876   4.509206   2.578974   3.877336   4.843979
    15  C    3.182343   4.549995   3.246002   4.598851   5.244209
    16  C    4.516269   5.859502   4.607449   5.961311   6.614689
    17  H    4.988347   6.224081   5.323067   6.656934   7.136790
    18  C    5.554273   6.956118   5.360770   6.687955   7.546323
    19  H    6.562342   7.949169   6.434412   7.766618   8.596544
    20  C    5.557789   6.973545   5.038772   6.270130   7.325199
    21  H    6.562950   7.971317   5.940922   7.103570   8.237917
    22  C    2.480698   3.707993   1.431267   2.571282   3.708632
    23  C    4.944622   6.197623   3.893051   4.764038   6.074387
    24  H    6.006641   7.232586   4.912351   5.673750   7.027427
    25  S    4.044851   5.068686   2.753786   3.281400   4.663975
    26  C    6.046655   4.862459   6.072599   4.844313   3.877828
    27  C    6.976797   5.659850   7.209073   6.067415   4.929863
    28  C    8.351729   7.056803   8.518445   7.325444   6.270527
    29  H    9.109680   7.762487   9.383456   8.237925   7.103682
    30  C    8.845915   7.660053   8.818867   7.547118   6.688998
    31  H    9.922477   8.739858   9.878157   8.597431   7.767770
    32  C    8.137415   7.093416   7.926981   6.615903   5.962788
    33  H    8.802162   7.861870   8.459433   7.138381   6.658774
    34  C    6.782398   5.775015   6.556083   5.245385   4.600268
    35  C    6.574198   5.172841   7.047422   6.074149   4.763720
    36  H    7.326414   5.905206   7.920623   7.027100   5.673313
    37  C    4.706602   3.485869   4.843873   3.708571   2.571241
    38  S    4.935355   3.527022   5.499083   4.663557   3.280700
    39  H    2.592522   3.824252   3.063118   4.334573   4.704171
    40  H    6.447342   5.627100   6.028289   4.705941   4.336499
                    6          7          8          9         10
     6  C    0.000000
     7  C    2.351866   0.000000
     8  N    1.397329   1.423292   0.000000
     9  O    3.394855   4.767415   4.605486   0.000000
    10  O    3.512424   1.226753   2.338649   5.942676   0.000000
    11  H    2.136465   2.118710   1.009382   5.492672   2.624796
    12  H    4.588723   4.636407   5.237192   2.624850   5.492676
    13  C    7.208845   5.659436   6.976384   6.820516   5.589525
    14  C    6.072006   4.861599   6.045792   5.410233   5.087152
    15  C    6.554330   5.772889   6.780103   5.193760   6.192330
    16  C    7.924981   7.090974   8.134706   6.394779   7.421379
    17  H    8.456858   7.858880   8.798761   6.577770   8.286941
    18  C    8.817372   7.658108   8.843766   7.607359   7.776649
    19  H    9.876434   8.737653   9.919992   8.532172   8.837614
    20  C    8.517790   7.055843   8.350684   7.795304   6.990230
    21  H    9.383112   7.761920   9.109034   8.828056   7.552626
    22  C    4.843919   3.485851   4.706640   4.791566   3.747839
    23  C    7.047762   5.173326   6.574715   7.265827   4.840839
    24  H    7.921137   5.905953   7.327213   8.316189   5.389108
    25  S    5.499852   3.528379   4.936655   6.231724   3.210924
    26  C    2.579130   4.509178   3.111581   5.088105   5.409992
    27  C    3.771505   5.880715   4.502153   5.590030   6.820212
    28  C    5.038787   6.973351   5.557369   6.991371   7.794825
    29  H    5.940785   7.971028   6.562525   7.553330   8.827543
    30  C    5.361083   6.956054   5.553768   7.778871   7.606786
    31  H    6.434734   7.949068   6.561768   8.840150   8.531478
    32  C    4.608008   5.859643   4.515773   7.424058   6.394303
    33  H    5.323776   6.224351   4.987831   8.290186   6.577276
    34  C    3.246643   4.550271   3.181983   6.194582   5.193526
    35  C    3.892975   6.197606   4.944701   4.840211   7.265833
    36  H    4.912261   7.232581   6.006780   5.388121   8.316246
    37  C    1.431220   3.707939   2.480614   3.747882   4.791468
    38  S    2.753692   5.068785   4.045167   3.209140   6.231958
    39  H    6.025922   5.624505   6.444466   4.322310   6.237856
    40  H    3.064104   3.824974   2.592356   6.240472   4.322413
                   11         12         13         14         15
    11  H    0.000000
    12  H    6.228532   0.000000
    13  C    7.777986   4.367396   0.000000
    14  C    6.937717   2.976637   1.448009   0.000000
    15  C    7.738813   2.717232   2.468269   1.427166   0.000000
    16  C    9.084102   3.932497   2.799390   2.425727   1.376218
    17  H    9.774032   4.302228   3.884924   3.409940   2.130262
    18  C    9.736876   5.051346   2.418133   2.833020   2.446789
    19  H   10.814552   5.997749   3.409177   3.918312   3.415851
    20  C    9.171492   5.233466   1.427500   2.493691   2.844678
    21  H    9.875026   6.269637   2.178013   3.474098   3.930671
    22  C    5.572483   2.778275   2.374316   1.416049   2.573283
    23  C    7.252154   5.034362   1.392278   2.357339   3.674048
    24  H    7.916211   6.099692   2.222723   3.403179   4.652820
    25  S    5.581862   4.432973   2.580816   2.601446   4.009270
    26  C    2.975732   6.938627   9.732854   8.591579   8.980236
    27  C    4.366787   7.778444  10.940577   9.732654  10.001854
    28  C    5.232318   9.172588  12.207207  11.031538  11.325189
    29  H    6.268673   9.875702  13.109822  11.895904  12.121624
    30  C    5.049467   9.739112  12.375976  11.289282  11.688607
    31  H    5.995652  10.817149  13.399611  12.331874  12.736715
    32  C    3.930148   9.086897  11.335094  10.331233  10.831624
    33  H    4.299491   9.777553  11.685312  10.768842  11.337584
    34  C    2.715122   7.741157  10.003035   8.981375   9.493390
    35  C    5.034591   7.251654  10.815223   9.532125   9.669224
    36  H    6.100071   7.915393  11.673208  10.358553  10.409179
    37  C    2.778181   5.572529   8.581135   7.386831   7.734439
    38  S    4.433725   5.580627   9.248941   7.946149   8.065134
    39  H    7.438021   2.064850   3.460870   2.189939   1.083670
    40  H    2.062313   7.440938   9.280337   8.347764   8.953949
                   16         17         18         19         20
    16  C    0.000000
    17  H    1.085967   0.000000
    18  C    1.427124   2.173225   0.000000
    19  H    2.175309   2.486475   1.085705   0.000000
    20  C    2.430813   3.401841   1.372102   2.135023   0.000000
    21  H    3.424072   4.307117   2.144544   2.477645   1.086066
    22  C    3.782740   4.689949   4.236307   5.321780   3.709417
    23  C    4.182532   5.267643   3.740279   4.651456   2.529555
    24  H    4.979306   6.056268   4.278941   5.037336   2.932710
    25  S    4.963002   5.991227   4.957161   5.981812   3.977476
    26  C   10.329598  10.766553  11.288011  12.330220  11.031178
    27  C   11.333530  11.683164  12.374765  13.398090  12.206772
    28  C   12.653146  13.002669  13.680171  14.704208  13.486141
    29  H   13.436003  13.733578  14.509840  15.521213  14.369170
    30  C   13.018757  13.432251  13.965184  14.999360  13.680879
    31  H   14.060219  14.468666  14.999802  16.030949  14.705271
    32  C   12.158352  12.643357  13.018814  14.059740  12.654060
    33  H   12.643922  13.167871  13.432785  14.468584  13.004096
    34  C   10.830909  11.336202  11.688093  12.735673  11.325657
    35  C   10.971764  11.243121  12.087671  13.084624  12.025808
    36  H   11.678977  11.883493  12.841711  13.814522  12.846923
    37  C    9.089195   9.521935  10.072934  11.113167   9.859069
    38  S    9.366696   9.656478  10.477852  11.472463  10.434537
    39  H    2.127991   2.439074   3.421784   4.296549   3.926627
    40  H   10.275190  10.843138  11.045417  12.093659  10.609348
                   21         22         23         24         25
    21  H    0.000000
    22  C    4.552283   0.000000
    23  C    2.815218   2.503890   0.000000
    24  H    2.802255   3.557101   1.081899   0.000000
    25  S    4.466060   1.745787   1.704861   2.434177   0.000000
    26  C   11.895783   7.387446   9.532849  10.359396   7.947303
    27  C   13.109611   8.581408  10.815609  11.673698   9.249603
    28  C   14.369321   9.859787  12.026494  12.847637  10.435435
    29  H   15.275542  10.754890  12.974932  13.817095  11.395259
    30  C   14.510628  10.074508  12.089058  12.843046  10.479454
    31  H   15.522304  11.115001  13.086191  13.815979  11.474157
    32  C   13.437005   9.091271  10.973646  11.680822   9.368949
    33  H   13.735051   9.524640  11.245580  11.885877   9.659326
    34  C   12.122256   7.736217   9.670924  10.410921   8.067361
    35  C   12.974527   8.468991  10.817460  11.733298   9.319418
    36  H   13.816661   9.350072  11.733135  12.667095  10.267029
    37  C   10.754473   6.215609   8.469265   9.350522   6.928250
    38  S   11.394709   6.927592   9.319221  10.267060   7.887537
    39  H    5.012353   2.890773   4.542436   5.573262   4.549381
    40  H   11.359113   7.090859   8.878534   9.571896   7.289814
                   26         27         28         29         30
    26  C    0.000000
    27  C    1.447955   0.000000
    28  C    2.493665   1.427437   0.000000
    29  H    3.474023   2.177912   1.086064   0.000000
    30  C    2.833121   2.418120   1.372108   2.144561   0.000000
    31  H    3.918412   3.409156   2.135041   2.477689   1.085704
    32  C    2.425843   2.799327   2.430741   3.424017   1.427098
    33  H    3.410057   3.884853   3.401766   4.307064   2.173181
    34  C    1.427232   2.468147   2.844542   3.930531   2.446747
    35  C    2.357400   1.392304   2.529394   2.814881   3.740229
    36  H    3.403231   2.222763   2.932501   2.801818   4.278798
    37  C    1.416161   2.374301   3.709414   4.552164   4.236504
    38  S    2.601530   2.580761   3.977320   4.465714   4.957199
    39  H    8.346227   9.278743  10.608659  11.358236  11.045907
    40  H    2.189952   3.460714   3.926455   5.012172   3.421719
                   31         32         33         34         35
    31  H    0.000000
    32  C    2.175320   0.000000
    33  H    2.486478   1.085962   0.000000
    34  C    3.415837   1.376213   2.130282   0.000000
    35  C    4.651356   4.182541   5.267652   3.674085   0.000000
    36  H    5.037116   4.979232   6.056178   4.652804   1.081902
    37  C    5.321970   3.783052   4.690313   2.573628   2.503932
    38  S    5.981811   4.963175   5.991447   4.009496   1.704803
    39  H   12.094785  10.275905  10.844636   8.953786   8.876196
    40  H    4.296525   2.127963   2.439085   1.083665   4.542475
                   36         37         38         39         40
    36  H    0.000000
    37  C    3.557150   0.000000
    38  S    2.434131   1.745836   0.000000
    39  H    9.569484   7.088466   7.286699   0.000000
    40  H    5.573246   2.891189   4.549689   8.506145   0.000000
 Symmetry turned off by external request.
 Stoichiometry    C22H12N2O2S2(1+,2)
 Framework group  C1[X(C22H12N2O2S2)]
 Deg. of freedom   114
 Full point group                 C1      NOp   1
 Rotational constants (GHZ):      0.4404013      0.0726528      0.0645962
 Standard basis: 6-31+G(d,p) (6D, 7F)
 Integral buffers will be    131072 words long.
 Raffenetti 2 integral format.
 Two-electron integral symmetry is turned off.
   600 basis functions,  1028 primitive gaussians,   600 cartesian basis functions
   103 alpha electrons      102 beta electrons
       nuclear repulsion energy      2628.6637159897 Hartrees.
 NAtoms=   40 NActive=   40 NUniq=   40 SFac= 7.50D-01 NAtFMM=   80 NAOKFM=F Big=F
 One-electron integrals computed using PRISM.
 NBasis=   600 RedAO= T  NBF=   600
 NBsUse=   592 1.00D-06 NBFU=   592
 Harris functional with IExCor=  402 diagonalized for initial guess.
 ExpMin= 4.05D-02 ExpMax= 2.19D+04 ExpMxC= 3.30D+03 IAcc=2 IRadAn=         0 AccDes= 0.00D+00
 HarFok:  IExCor=  402 AccDes= 0.00D+00 IRadAn=         0 IDoV= 1
 ScaDFX=  1.000000  1.000000  1.000000  1.000000
 FoFCou: FMM=F IPFlag=           0 FMFlag=      100000 FMFlg1=           0
         NFxFlg=           0 DoJE=T BraDBF=F KetDBF=T FulRan=T
         Omega=  0.000000  0.000000  1.000000  0.000000  0.000000 ICntrl=     500 IOpCl=  0
         NMat0=    1 NMatS0=    1 NMatT0=    0 NMatD0=    1 NMtDS0=    0 NMtDT0=    0
         I1Cent=           4 NGrid=           0.
 Symmetry not used in FoFCou.
 Initial guess <Sx>= 0.0000 <Sy>= 0.0000 <Sz>= 0.5000 <S**2>= 0.7500 S= 0.5000
 Requested convergence on RMS density matrix=1.00D-08 within 128 cycles.
 Requested convergence on MAX density matrix=1.00D-06.
 Requested convergence on             energy=1.00D-06.
 No special actions if energy rises.
 Restarting incremental Fock formation.
 SCF Done:  E(UB3LYP) =  -1901.72304736     A.U. after   32 cycles
             Convg  =    0.4017D-08             -V/T =  2.0070
 <Sx>= 0.0000 <Sy>= 0.0000 <Sz>= 0.5000 <S**2>= 0.7670 S= 0.5085
 <L.S>= 0.000000000000E+00
 Annihilation of the first spin contaminant:
 S**2 before annihilation     0.7670,   after     0.7502
 DiagDN has N=   600 LTot=  1832 but NE2=     3 cannot use DSYEVD.

 **********************************************************************

            Population analysis using the SCF density.

 **********************************************************************

 Alpha  occ. eigenvalues --  -89.06032 -89.06029 -19.26712 -19.26712 -14.51541
 Alpha  occ. eigenvalues --  -14.51540 -10.43352 -10.43351 -10.41030 -10.41028
 Alpha  occ. eigenvalues --  -10.37481 -10.37478 -10.36994 -10.36990 -10.34889
 Alpha  occ. eigenvalues --  -10.34884 -10.34303 -10.34258 -10.33962 -10.33959
 Alpha  occ. eigenvalues --  -10.32820 -10.32815 -10.32656 -10.32654 -10.32582
 Alpha  occ. eigenvalues --  -10.32578 -10.31854 -10.31852  -8.11828  -8.11825
 Alpha  occ. eigenvalues --   -6.08239  -6.08236  -6.07826  -6.07823  -6.07602
 Alpha  occ. eigenvalues --   -6.07599  -1.18039  -1.17463  -1.11086  -1.09557
 Alpha  occ. eigenvalues --   -1.03547  -1.03490  -0.96584  -0.96562  -0.94828
 Alpha  occ. eigenvalues --   -0.92376  -0.91671  -0.88561  -0.87146  -0.87004
 Alpha  occ. eigenvalues --   -0.86613  -0.82893  -0.81126  -0.80422  -0.75142
 Alpha  occ. eigenvalues --   -0.74948  -0.74103  -0.72084  -0.71637  -0.71149
 Alpha  occ. eigenvalues --   -0.69092  -0.67365  -0.66269  -0.65415  -0.62451
 Alpha  occ. eigenvalues --   -0.61897  -0.61845  -0.60119  -0.59188  -0.59171
 Alpha  occ. eigenvalues --   -0.58840  -0.58433  -0.57231  -0.56341  -0.55924
 Alpha  occ. eigenvalues --   -0.55336  -0.55240  -0.55182  -0.54917  -0.54498
 Alpha  occ. eigenvalues --   -0.54037  -0.53970  -0.52676  -0.49412  -0.49043
 Alpha  occ. eigenvalues --   -0.48893  -0.48591  -0.48475  -0.47750  -0.47001
 Alpha  occ. eigenvalues --   -0.46897  -0.46209  -0.46144  -0.42075  -0.41743
 Alpha  occ. eigenvalues --   -0.40649  -0.40605  -0.39263  -0.37921  -0.37892
 Alpha  occ. eigenvalues --   -0.36621  -0.35171  -0.31838
 Alpha virt. eigenvalues --   -0.23550  -0.20085  -0.17355  -0.14250  -0.11386
 Alpha virt. eigenvalues --   -0.11295  -0.10752  -0.10722  -0.10592  -0.09977
 Alpha virt. eigenvalues --   -0.09951  -0.08989  -0.07972  -0.07878  -0.07668
 Alpha virt. eigenvalues --   -0.06932  -0.06195  -0.06142  -0.05667  -0.05102
 Alpha virt. eigenvalues --   -0.04743  -0.04490  -0.04335  -0.03847  -0.03600
 Alpha virt. eigenvalues --   -0.03485  -0.03070  -0.02970  -0.02486  -0.02031
 Alpha virt. eigenvalues --   -0.01659  -0.01348  -0.01279  -0.01057  -0.00889
 Alpha virt. eigenvalues --   -0.00643   0.00095   0.00161   0.00655   0.01095
 Alpha virt. eigenvalues --    0.01262   0.01577   0.01840   0.02250   0.02298
 Alpha virt. eigenvalues --    0.02504   0.02637   0.02767   0.03358   0.03826
 Alpha virt. eigenvalues --    0.03842   0.04292   0.04871   0.04934   0.05187
 Alpha virt. eigenvalues --    0.05661   0.05864   0.06083   0.06338   0.06778
 Alpha virt. eigenvalues --    0.06958   0.07263   0.07363   0.08033   0.08059
 Alpha virt. eigenvalues --    0.08251   0.08296   0.08616   0.08671   0.09038
 Alpha virt. eigenvalues --    0.09425   0.09446   0.09601   0.09861   0.09934
 Alpha virt. eigenvalues --    0.10367   0.10546   0.10783   0.10887   0.11028
 Alpha virt. eigenvalues --    0.11546   0.11595   0.11932   0.12228   0.12689
 Alpha virt. eigenvalues --    0.12730   0.12890   0.13274   0.13285   0.13489
 Alpha virt. eigenvalues --    0.13568   0.13868   0.14227   0.14784   0.15045
 Alpha virt. eigenvalues --    0.15101   0.15514   0.15546   0.16090   0.16212
 Alpha virt. eigenvalues --    0.16429   0.16535   0.16683   0.17523   0.17695
 Alpha virt. eigenvalues --    0.17970   0.17990   0.18392   0.18569   0.18768
 Alpha virt. eigenvalues --    0.18777   0.19061   0.19241   0.19494   0.19779
 Alpha virt. eigenvalues --    0.20046   0.20056   0.20539   0.20578   0.21050
 Alpha virt. eigenvalues --    0.21400   0.22145   0.22429   0.22449   0.23003
 Alpha virt. eigenvalues --    0.23046   0.24138   0.24311   0.24495   0.24803
 Alpha virt. eigenvalues --    0.25220   0.25530   0.26181   0.26497   0.26868
 Alpha virt. eigenvalues --    0.27126   0.27715   0.28910   0.29020   0.29550
 Alpha virt. eigenvalues --    0.30275   0.31324   0.31480   0.32090   0.32969
 Alpha virt. eigenvalues --    0.33261   0.34220   0.34623   0.34875   0.36331
 Alpha virt. eigenvalues --    0.37821   0.37845   0.38539   0.39710   0.41220
 Alpha virt. eigenvalues --    0.41269   0.42789   0.43558   0.44569   0.45887
 Alpha virt. eigenvalues --    0.48155   0.48522   0.48589   0.48815   0.50038
 Alpha virt. eigenvalues --    0.50829   0.52129   0.53065   0.53134   0.54463
 Alpha virt. eigenvalues --    0.54675   0.55079   0.55567   0.56581   0.56733
 Alpha virt. eigenvalues --    0.57584   0.57798   0.58366   0.58383   0.59703
 Alpha virt. eigenvalues --    0.59796   0.60022   0.61020   0.61667   0.62178
 Alpha virt. eigenvalues --    0.62217   0.62442   0.62966   0.63334   0.63417
 Alpha virt. eigenvalues --    0.63477   0.63860   0.64359   0.66089   0.66266
 Alpha virt. eigenvalues --    0.66665   0.66711   0.67314   0.67881   0.68081
 Alpha virt. eigenvalues --    0.68996   0.69664   0.70203   0.70522   0.70909
 Alpha virt. eigenvalues --    0.72013   0.72123   0.72971   0.74568   0.74741
 Alpha virt. eigenvalues --    0.76278   0.76661   0.77755   0.78369   0.78734
 Alpha virt. eigenvalues --    0.78927   0.79685   0.79976   0.81817   0.81877
 Alpha virt. eigenvalues --    0.82756   0.83418   0.83729   0.84339   0.84870
 Alpha virt. eigenvalues --    0.86217   0.86996   0.87261   0.87481   0.88288
 Alpha virt. eigenvalues --    0.89764   0.89982   0.90964   0.91315   0.91480
 Alpha virt. eigenvalues --    0.93896   0.94112   0.95518   0.96148   0.96623
 Alpha virt. eigenvalues --    0.96640   0.98372   0.99691   0.99974   1.01111
 Alpha virt. eigenvalues --    1.01703   1.01801   1.02535   1.02665   1.04076
 Alpha virt. eigenvalues --    1.04405   1.05737   1.06164   1.06657   1.07375
 Alpha virt. eigenvalues --    1.08734   1.08745   1.09979   1.10921   1.10929
 Alpha virt. eigenvalues --    1.12038   1.12440   1.12668   1.14599   1.14940
 Alpha virt. eigenvalues --    1.15369   1.17025   1.17477   1.17997   1.18436
 Alpha virt. eigenvalues --    1.18548   1.19270   1.19770   1.21197   1.22418
 Alpha virt. eigenvalues --    1.22643   1.24057   1.24096   1.24966   1.25429
 Alpha virt. eigenvalues --    1.25775   1.25829   1.26902   1.27566   1.27776
 Alpha virt. eigenvalues --    1.28209   1.28226   1.28810   1.29321   1.29689
 Alpha virt. eigenvalues --    1.29769   1.30494   1.33070   1.33336   1.33775
 Alpha virt. eigenvalues --    1.33900   1.35080   1.35930   1.37237   1.38780
 Alpha virt. eigenvalues --    1.39313   1.39812   1.42595   1.43869   1.47008
 Alpha virt. eigenvalues --    1.50334   1.50428   1.52619   1.54258   1.54499
 Alpha virt. eigenvalues --    1.56092   1.58810   1.59239   1.62391   1.63409
 Alpha virt. eigenvalues --    1.63769   1.66168   1.67854   1.68602   1.69882
 Alpha virt. eigenvalues --    1.70339   1.70483   1.71179   1.71467   1.72499
 Alpha virt. eigenvalues --    1.72529   1.73663   1.74190   1.76738   1.76750
 Alpha virt. eigenvalues --    1.77622   1.77688   1.79348   1.80034   1.80875
 Alpha virt. eigenvalues --    1.81098   1.81817   1.82053   1.83074   1.83584
 Alpha virt. eigenvalues --    1.85314   1.85855   1.87608   1.88399   1.88470
 Alpha virt. eigenvalues --    1.90092   1.90278   1.91304   1.91335   1.92822
 Alpha virt. eigenvalues --    1.93500   1.93802   1.93903   1.96427   1.97660
 Alpha virt. eigenvalues --    1.99408   1.99456   2.02346   2.02649   2.04190
 Alpha virt. eigenvalues --    2.04440   2.06007   2.06158   2.08049   2.08112
 Alpha virt. eigenvalues --    2.09994   2.11755   2.12855   2.15626   2.15776
 Alpha virt. eigenvalues --    2.16256   2.16788   2.17929   2.18706   2.19929
 Alpha virt. eigenvalues --    2.20419   2.22213   2.23862   2.24370   2.25791
 Alpha virt. eigenvalues --    2.25802   2.27170   2.27298   2.27405   2.27634
 Alpha virt. eigenvalues --    2.28275   2.31655   2.31999   2.34310   2.34423
 Alpha virt. eigenvalues --    2.35701   2.36300   2.37415   2.39702   2.40185
 Alpha virt. eigenvalues --    2.40322   2.40435   2.40801   2.42172   2.43551
 Alpha virt. eigenvalues --    2.44383   2.44966   2.45805   2.46387   2.46939
 Alpha virt. eigenvalues --    2.47192   2.48097   2.48599   2.50574   2.51083
 Alpha virt. eigenvalues --    2.52044   2.52295   2.53051   2.54218   2.55122
 Alpha virt. eigenvalues --    2.56661   2.61237   2.61475   2.62657   2.63069
 Alpha virt. eigenvalues --    2.64692   2.65243   2.66208   2.67683   2.68081
 Alpha virt. eigenvalues --    2.68429   2.71080   2.73636   2.75006   2.77112
 Alpha virt. eigenvalues --    2.81747   2.85532   2.86361   2.87392   2.91480
 Alpha virt. eigenvalues --    2.91586   2.92637   2.93349   3.00560   3.01920
 Alpha virt. eigenvalues --    3.03190   3.07431   3.07781   3.14213   3.14403
 Alpha virt. eigenvalues --    3.16091   3.16142   3.17736   3.18719   3.21859
 Alpha virt. eigenvalues --    3.24230   3.25191   3.30817   3.35609   3.35675
 Alpha virt. eigenvalues --    3.38609   3.38719   3.43788   3.43889   3.72497
 Alpha virt. eigenvalues --    3.72545   3.85970   3.86382   4.11361   4.15260
 Alpha virt. eigenvalues --    4.15335   4.16754   4.17044   4.19214   4.20167
 Alpha virt. eigenvalues --    4.20680   4.23746   4.25839   4.27748   4.28307
 Alpha virt. eigenvalues --    4.30861   4.30947   4.33238   4.38706   4.40664
 Alpha virt. eigenvalues --    4.41972   4.42327   4.48031   4.57356   4.65088
 Alpha virt. eigenvalues --    4.74727   4.74898   4.86138   4.93430
  Beta  occ. eigenvalues --  -89.06044 -89.06041 -19.26485 -19.26484 -14.51564
  Beta  occ. eigenvalues --  -14.51563 -10.43370 -10.43370 -10.40980 -10.40979
  Beta  occ. eigenvalues --  -10.37400 -10.37397 -10.36753 -10.36749 -10.34861
  Beta  occ. eigenvalues --  -10.34856 -10.34103 -10.34057 -10.34004 -10.34002
  Beta  occ. eigenvalues --  -10.32799 -10.32795 -10.32581 -10.32578 -10.32530
  Beta  occ. eigenvalues --  -10.32527 -10.31863 -10.31861  -8.11840  -8.11837
  Beta  occ. eigenvalues --   -6.08253  -6.08250  -6.07839  -6.07836  -6.07629
  Beta  occ. eigenvalues --   -6.07626  -1.17736  -1.17142  -1.10833  -1.09437
  Beta  occ. eigenvalues --   -1.03357  -1.03302  -0.96469  -0.96449  -0.94508
  Beta  occ. eigenvalues --   -0.92080  -0.91437  -0.88314  -0.87105  -0.86948
  Beta  occ. eigenvalues --   -0.86468  -0.82425  -0.81013  -0.80107  -0.75011
  Beta  occ. eigenvalues --   -0.74873  -0.73894  -0.71987  -0.71536  -0.70965
  Beta  occ. eigenvalues --   -0.68960  -0.67283  -0.66162  -0.65336  -0.62328
  Beta  occ. eigenvalues --   -0.61787  -0.61708  -0.59522  -0.59137  -0.59098
  Beta  occ. eigenvalues --   -0.58719  -0.58259  -0.57050  -0.56242  -0.55852
  Beta  occ. eigenvalues --   -0.55184  -0.55102  -0.54957  -0.54817  -0.54356
  Beta  occ. eigenvalues --   -0.53585  -0.53485  -0.52482  -0.49106  -0.48957
  Beta  occ. eigenvalues --   -0.48534  -0.48449  -0.48318  -0.47098  -0.46970
  Beta  occ. eigenvalues --   -0.46836  -0.45665  -0.45634  -0.41155  -0.41037
  Beta  occ. eigenvalues --   -0.40408  -0.39929  -0.39016  -0.37876  -0.37836
  Beta  occ. eigenvalues --   -0.35494  -0.34004
  Beta virt. eigenvalues --   -0.27624  -0.22363  -0.19155  -0.16698  -0.13797
  Beta virt. eigenvalues --   -0.10964  -0.10873  -0.10635  -0.10622  -0.10192
  Beta virt. eigenvalues --   -0.09917  -0.09699  -0.08813  -0.07947  -0.07851
  Beta virt. eigenvalues --   -0.07636  -0.06906  -0.06149  -0.06068  -0.05593
  Beta virt. eigenvalues --   -0.05072  -0.04711  -0.04443  -0.04273  -0.03772
  Beta virt. eigenvalues --   -0.03548  -0.03184  -0.03022  -0.02882  -0.02459
  Beta virt. eigenvalues --   -0.01972  -0.01518  -0.01239  -0.01122  -0.01023
  Beta virt. eigenvalues --   -0.00853  -0.00331   0.00231   0.00447   0.00863
  Beta virt. eigenvalues --    0.01146   0.01349   0.01669   0.01879   0.02317
  Beta virt. eigenvalues --    0.02347   0.02558   0.02750   0.02869   0.03422
  Beta virt. eigenvalues --    0.03927   0.03950   0.04354   0.04916   0.04991
  Beta virt. eigenvalues --    0.05234   0.05776   0.06023   0.06118   0.06403
  Beta virt. eigenvalues --    0.06808   0.07009   0.07338   0.07408   0.08094
  Beta virt. eigenvalues --    0.08111   0.08285   0.08350   0.08657   0.08723
  Beta virt. eigenvalues --    0.09095   0.09492   0.09531   0.09632   0.09950
  Beta virt. eigenvalues --    0.09978   0.10388   0.10564   0.10843   0.10911
  Beta virt. eigenvalues --    0.11084   0.11597   0.11637   0.12028   0.12297
  Beta virt. eigenvalues --    0.12745   0.12772   0.12926   0.13338   0.13342
  Beta virt. eigenvalues --    0.13549   0.13654   0.13897   0.14288   0.14832
  Beta virt. eigenvalues --    0.15120   0.15171   0.15600   0.15611   0.16139
  Beta virt. eigenvalues --    0.16248   0.16488   0.16668   0.16719   0.17561
  Beta virt. eigenvalues --    0.17747   0.17991   0.18011   0.18437   0.18677
  Beta virt. eigenvalues --    0.18814   0.18823   0.19138   0.19354   0.19577
  Beta virt. eigenvalues --    0.19830   0.20088   0.20110   0.20622   0.20671
  Beta virt. eigenvalues --    0.21082   0.21490   0.22188   0.22468   0.22482
  Beta virt. eigenvalues --    0.23057   0.23100   0.24195   0.24391   0.24598
  Beta virt. eigenvalues --    0.24884   0.25315   0.25581   0.26231   0.26566
  Beta virt. eigenvalues --    0.26928   0.27170   0.27809   0.28946   0.29104
  Beta virt. eigenvalues --    0.29631   0.30334   0.31386   0.31547   0.32155
  Beta virt. eigenvalues --    0.33060   0.33311   0.34252   0.34702   0.34927
  Beta virt. eigenvalues --    0.36372   0.37892   0.37898   0.38638   0.39769
  Beta virt. eigenvalues --    0.41276   0.41402   0.42844   0.43595   0.44637
  Beta virt. eigenvalues --    0.45967   0.48238   0.48594   0.48685   0.48922
  Beta virt. eigenvalues --    0.50182   0.50960   0.52384   0.53201   0.53321
  Beta virt. eigenvalues --    0.54713   0.54877   0.55324   0.55729   0.56652
  Beta virt. eigenvalues --    0.56812   0.57685   0.57937   0.58526   0.58561
  Beta virt. eigenvalues --    0.59778   0.59915   0.60138   0.61116   0.62008
  Beta virt. eigenvalues --    0.62402   0.62425   0.62537   0.63057   0.63407
  Beta virt. eigenvalues --    0.63551   0.63565   0.63978   0.64482   0.66262
  Beta virt. eigenvalues --    0.66418   0.66726   0.66811   0.67481   0.68083
  Beta virt. eigenvalues --    0.68244   0.69144   0.69732   0.70481   0.70872
  Beta virt. eigenvalues --    0.70982   0.72251   0.72312   0.73208   0.74657
  Beta virt. eigenvalues --    0.74927   0.76402   0.76754   0.77825   0.78420
  Beta virt. eigenvalues --    0.78857   0.78964   0.79764   0.80099   0.81929
  Beta virt. eigenvalues --    0.81945   0.82830   0.83467   0.83757   0.84436
  Beta virt. eigenvalues --    0.84922   0.86275   0.87011   0.87357   0.87540
  Beta virt. eigenvalues --    0.88361   0.89769   0.90046   0.91047   0.91358
  Beta virt. eigenvalues --    0.91517   0.93977   0.94176   0.95600   0.96180
  Beta virt. eigenvalues --    0.96687   0.96707   0.98437   0.99731   1.00027
  Beta virt. eigenvalues --    1.01243   1.01815   1.01898   1.02645   1.02760
  Beta virt. eigenvalues --    1.04171   1.04463   1.05814   1.06267   1.06740
  Beta virt. eigenvalues --    1.07443   1.08848   1.08907   1.10147   1.11114
  Beta virt. eigenvalues --    1.11116   1.12267   1.12564   1.12824   1.14982
  Beta virt. eigenvalues --    1.15337   1.15753   1.17159   1.17851   1.18237
  Beta virt. eigenvalues --    1.18676   1.18921   1.19525   1.19945   1.21336
  Beta virt. eigenvalues --    1.22549   1.22748   1.24205   1.24262   1.25176
  Beta virt. eigenvalues --    1.25621   1.25922   1.25940   1.27072   1.27734
  Beta virt. eigenvalues --    1.27969   1.28373   1.28401   1.29007   1.29461
  Beta virt. eigenvalues --    1.29845   1.29999   1.30747   1.33210   1.33493
  Beta virt. eigenvalues --    1.33873   1.34040   1.35201   1.36038   1.37371
  Beta virt. eigenvalues --    1.38905   1.39446   1.40019   1.42753   1.44021
  Beta virt. eigenvalues --    1.47196   1.50578   1.50623   1.52741   1.54753
  Beta virt. eigenvalues --    1.55197   1.56458   1.59068   1.59470   1.62556
  Beta virt. eigenvalues --    1.63648   1.64101   1.66340   1.67939   1.68810
  Beta virt. eigenvalues --    1.70011   1.70656   1.70709   1.71441   1.71780
  Beta virt. eigenvalues --    1.72587   1.72638   1.73897   1.74296   1.76879
  Beta virt. eigenvalues --    1.76891   1.77817   1.77890   1.79426   1.80107
  Beta virt. eigenvalues --    1.81077   1.81246   1.81966   1.82259   1.83155
  Beta virt. eigenvalues --    1.83807   1.85471   1.86063   1.87863   1.88501
  Beta virt. eigenvalues --    1.88578   1.90272   1.90431   1.91467   1.91643
  Beta virt. eigenvalues --    1.92944   1.93729   1.94058   1.94111   1.96498
  Beta virt. eigenvalues --    1.97836   1.99590   1.99654   2.02889   2.02924
  Beta virt. eigenvalues --    2.04365   2.04678   2.06240   2.06336   2.08197
  Beta virt. eigenvalues --    2.08272   2.10137   2.11962   2.13022   2.15804
  Beta virt. eigenvalues --    2.16043   2.16460   2.16990   2.18095   2.18922
  Beta virt. eigenvalues --    2.20189   2.20937   2.22687   2.23994   2.24583
  Beta virt. eigenvalues --    2.25917   2.26080   2.27327   2.27418   2.27505
  Beta virt. eigenvalues --    2.27694   2.28401   2.31832   2.32172   2.34489
  Beta virt. eigenvalues --    2.34611   2.35763   2.36389   2.37661   2.39923
  Beta virt. eigenvalues --    2.40405   2.40530   2.40580   2.40986   2.42342
  Beta virt. eigenvalues --    2.43660   2.44452   2.45099   2.45873   2.46461
  Beta virt. eigenvalues --    2.47035   2.47312   2.48213   2.48709   2.50718
  Beta virt. eigenvalues --    2.51243   2.52206   2.52414   2.53189   2.54339
  Beta virt. eigenvalues --    2.55286   2.56729   2.61375   2.61615   2.62832
  Beta virt. eigenvalues --    2.63362   2.64781   2.65402   2.66323   2.67842
  Beta virt. eigenvalues --    2.68230   2.68500   2.71153   2.73676   2.75430
  Beta virt. eigenvalues --    2.77175   2.81869   2.85669   2.86444   2.87486
  Beta virt. eigenvalues --    2.91537   2.91651   2.92728   2.93450   3.00632
  Beta virt. eigenvalues --    3.02024   3.03252   3.07502   3.07852   3.14340
  Beta virt. eigenvalues --    3.14506   3.16100   3.16151   3.17799   3.18765
  Beta virt. eigenvalues --    3.21933   3.24259   3.25221   3.30928   3.35678
  Beta virt. eigenvalues --    3.35752   3.38661   3.38765   3.43810   3.43898
  Beta virt. eigenvalues --    3.72529   3.72578   3.85978   3.86391   4.11421
  Beta virt. eigenvalues --    4.15357   4.15400   4.16948   4.17236   4.19298
  Beta virt. eigenvalues --    4.20223   4.20833   4.23864   4.26037   4.27853
  Beta virt. eigenvalues --    4.28597   4.31104   4.31131   4.33503   4.38800
  Beta virt. eigenvalues --    4.40835   4.42105   4.42461   4.48199   4.57551
  Beta virt. eigenvalues --    4.65398   4.74820   4.74990   4.86320   4.93656
          Condensed to atoms (all electrons):
              1          2          3          4          5          6
     1  N    7.368724   0.209784   0.046872   0.057071  -0.083979  -0.043263
     2  C    0.209784   8.922702   0.830824  -0.705595  -3.590649  -0.393222
     3  C    0.046872   0.830824  11.789838   1.870142  -5.571181  -2.738673
     4  C    0.057071  -0.705595   1.870142  17.810074  -0.091639  -5.614070
     5  C   -0.083979  -3.590649  -5.571181  -0.091639  17.717690   1.868533
     6  C   -0.043263  -0.393222  -2.738673  -5.614070   1.868533  11.792371
     7  C   -0.066912  -0.167402  -0.415652  -3.604829  -0.682857   0.838324
     8  N   -0.002024  -0.066728  -0.043433  -0.085574   0.057311   0.048014
     9  O   -0.068406   0.255733  -0.077335  -0.055965   0.002635   0.096026
    10  O   -0.003584   0.020227   0.096947   0.005079  -0.056534  -0.077280
    11  H    0.000635   0.006166   0.004980   0.102048   0.033265  -0.074066
    12  H    0.303083  -0.057250  -0.074896   0.033188   0.102894   0.005215
    13  C   -0.227026  -0.248918  -0.850200  -1.728856  -0.452308  -0.035859
    14  C   -0.262203  -0.302465  -0.371681  -1.204950  -1.384307   0.260207
    15  C    0.264439   0.317991   0.437485   0.988202   0.883996  -0.030958
    16  C    0.064477   0.196429  -0.290059   0.029453  -0.365490  -0.020445
    17  H    0.000354   0.000056  -0.000811  -0.000291   0.000226   0.000009
    18  C    0.014490   0.001103   0.006809   0.012863   0.061903   0.000636
    19  H    0.000004  -0.000011   0.000084   0.000013  -0.000028  -0.000001
    20  C   -0.064093  -0.007239   0.142245  -0.384827  -0.206870  -0.017882
    21  H    0.000005  -0.000009   0.000854   0.000171   0.000019   0.000001
    22  C   -0.045830   0.379855   1.579523   0.663602  -1.096142  -0.796706
    23  C   -0.012714   0.006776  -0.189525   0.253689   0.195561   0.048212
    24  H    0.000035  -0.000036  -0.008763   0.002051  -0.000362   0.000080
    25  S    0.038031   0.130159  -0.180472   0.147565   0.095341   0.001863
    26  C   -0.020153   0.178400   0.256819  -1.406832  -1.185768  -0.346024
    27  C   -0.027487   0.009659  -0.033423  -0.457902  -1.716673  -0.839422
    28  C   -0.002213   0.025963  -0.017267  -0.207098  -0.378457   0.136068
    29  H    0.000000   0.000000   0.000001   0.000019   0.000170   0.000862
    30  C    0.000166  -0.006254   0.000572   0.062326   0.012160   0.008334
    31  H    0.000000  -0.000002  -0.000001  -0.000028   0.000013   0.000082
    32  C    0.000055   0.027024  -0.020114  -0.363801   0.030836  -0.293910
    33  H    0.000000   0.000008   0.000009   0.000229  -0.000288  -0.000810
    34  C    0.013773  -0.112282  -0.033077   0.894552   0.973468   0.434994
    35  C    0.007651   0.069924   0.046501   0.194725   0.245980  -0.181886
    36  H   -0.000002   0.000334   0.000081  -0.000358   0.002095  -0.008782
    37  C   -0.101852  -0.230125  -0.788731  -1.087080   0.653871   1.562421
    38  S    0.013934  -0.141588   0.002312   0.096022   0.146734  -0.183401
    39  H   -0.007945   0.009719  -0.018444   0.005475  -0.007142   0.000468
    40  H    0.000012   0.000918   0.000455  -0.007235   0.005455  -0.017961
              7          8          9         10         11         12
     1  N   -0.066912  -0.002024  -0.068406  -0.003584   0.000635   0.303083
     2  C   -0.167402  -0.066728   0.255733   0.020227   0.006166  -0.057250
     3  C   -0.415652  -0.043433  -0.077335   0.096947   0.004980  -0.074896
     4  C   -3.604829  -0.085574  -0.055965   0.005079   0.102048   0.033188
     5  C   -0.682857   0.057311   0.002635  -0.056534   0.033265   0.102894
     6  C    0.838324   0.048014   0.096026  -0.077280  -0.074066   0.005215
     7  C    8.921933   0.209581   0.020286   0.253868  -0.056790   0.006229
     8  N    0.209581   7.368966  -0.003570  -0.068589   0.302999   0.000636
     9  O    0.020286  -0.003570   8.312881  -0.000037  -0.000029   0.003571
    10  O    0.253868  -0.068589  -0.000037   8.313281   0.003567  -0.000029
    11  H   -0.056790   0.302999  -0.000029   0.003567   0.383582   0.000000
    12  H    0.006229   0.000636   0.003571  -0.000029   0.000000   0.383400
    13  C    0.015612  -0.027308   0.001914  -0.041440   0.000042  -0.025624
    14  C    0.183099  -0.020053   0.021542  -0.026505  -0.000120  -0.088019
    15  C   -0.117015   0.013628  -0.014678   0.018361  -0.000006   0.070295
    16  C    0.026090   0.000027  -0.003653   0.000527   0.000003   0.012916
    17  H    0.000008   0.000000   0.000001   0.000000   0.000000  -0.000011
    18  C   -0.006191   0.000168   0.000282   0.000074   0.000000   0.001081
    19  H   -0.000002   0.000000   0.000000   0.000000   0.000000   0.000000
    20  C    0.026110  -0.002215  -0.000636  -0.002357   0.000001  -0.004438
    21  H    0.000000   0.000000   0.000000   0.000000   0.000000   0.000000
    22  C   -0.230991  -0.101847   0.000791   0.040072   0.000477  -0.003324
    23  C    0.069903   0.007634  -0.000012   0.016082  -0.000042   0.003917
    24  H    0.000325  -0.000002   0.000000  -0.000017   0.000000   0.000000
    25  S   -0.142334   0.013740  -0.002064  -0.027534   0.000822  -0.001808
    26  C   -0.292340  -0.261398  -0.026041   0.021638  -0.089665  -0.000115
    27  C   -0.245419  -0.226735  -0.040494   0.001953  -0.026301   0.000042
    28  C   -0.007129  -0.063754  -0.002284  -0.000630  -0.004456   0.000001
    29  H   -0.000008   0.000005   0.000000   0.000000   0.000000   0.000000
    30  C    0.000929   0.014401   0.000073   0.000278   0.001101   0.000000
    31  H   -0.000011   0.000004   0.000000   0.000000   0.000000   0.000000
    32  C    0.195426   0.064489   0.000524  -0.003678   0.013297   0.000003
    33  H    0.000055   0.000358   0.000000   0.000001  -0.000011   0.000000
    34  C    0.311100   0.263624   0.018003  -0.014832   0.071391  -0.000006
    35  C    0.006444  -0.013178   0.015860  -0.000016   0.003887  -0.000041
    36  H   -0.000038   0.000035  -0.000017   0.000000   0.000000   0.000000
    37  C    0.381133  -0.045229   0.040582   0.000650  -0.002627   0.000504
    38  S    0.129033   0.037896  -0.028071  -0.002078  -0.001771   0.000837
    39  H    0.000965   0.000013   0.000300  -0.000004   0.000000   0.005258
    40  H    0.009741  -0.008122  -0.000004   0.000299   0.005326   0.000000
             13         14         15         16         17         18
     1  N   -0.227026  -0.262203   0.264439   0.064477   0.000354   0.014490
     2  C   -0.248918  -0.302465   0.317991   0.196429   0.000056   0.001103
     3  C   -0.850200  -0.371681   0.437485  -0.290059  -0.000811   0.006809
     4  C   -1.728856  -1.204950   0.988202   0.029453  -0.000291   0.012863
     5  C   -0.452308  -1.384307   0.883996  -0.365490   0.000226   0.061903
     6  C   -0.035859   0.260207  -0.030958  -0.020445   0.000009   0.000636
     7  C    0.015612   0.183099  -0.117015   0.026090   0.000008  -0.006191
     8  N   -0.027308  -0.020053   0.013628   0.000027   0.000000   0.000168
     9  O    0.001914   0.021542  -0.014678  -0.003653   0.000001   0.000282
    10  O   -0.041440  -0.026505   0.018361   0.000527   0.000000   0.000074
    11  H    0.000042  -0.000120  -0.000006   0.000003   0.000000   0.000000
    12  H   -0.025624  -0.088019   0.070295   0.012916  -0.000011   0.001081
    13  C   24.556006   5.936573  -9.726196  -1.079287   0.006188  -0.547731
    14  C    5.936573  24.221342 -11.399224  -1.118770   0.009877  -1.451263
    15  C   -9.726196 -11.399224  22.044618  -3.276484   0.021035   0.618650
    16  C   -1.079287  -1.118770  -3.276484  10.743518   0.272794   0.397587
    17  H    0.006188   0.009877   0.021035   0.272794   0.530215   0.001265
    18  C   -0.547731  -1.451263   0.618650   0.397587   0.001265   5.840929
    19  H    0.019514   0.026200   0.026193  -0.024020  -0.004483   0.267627
    20  C    1.183339  -1.521428  -2.768640  -0.337685   0.016520   0.648469
    21  H    0.079209   0.107652  -0.016299  -0.004130  -0.000140   0.019997
    22  C   -6.410677  -3.716445   5.756643   0.552178  -0.009637   0.130144
    23  C   -3.556321  -1.763815   1.336451   0.268502   0.001622   0.099841
    24  H    0.063300   0.017800  -0.011043   0.002189   0.000000  -0.006099
    25  S   -0.990120  -0.099523   0.836388   0.105336  -0.000205  -0.015383
    26  C    0.018195   0.129217  -0.035600  -0.003731   0.000000   0.000024
    27  C    0.000719   0.018293  -0.003894  -0.001196   0.000000   0.000051
    28  C   -0.000205  -0.000229   0.000195  -0.000028   0.000000   0.000002
    29  H    0.000000   0.000000   0.000000   0.000000   0.000000   0.000000
    30  C    0.000050   0.000023  -0.000059   0.000000   0.000000   0.000000
    31  H    0.000000   0.000000   0.000000   0.000000   0.000000   0.000000
    32  C   -0.001194  -0.003730   0.001979   0.000163   0.000000   0.000000
    33  H    0.000000   0.000000   0.000000   0.000000   0.000000   0.000000
    34  C   -0.003872  -0.035665   0.009110   0.001979   0.000000  -0.000060
    35  C    0.000939   0.003748  -0.001633   0.000250   0.000000  -0.000021
    36  H    0.000000   0.000000   0.000000   0.000000   0.000000   0.000000
    37  C    0.014939   0.056278  -0.017471  -0.013475   0.000002   0.001038
    38  S   -0.001760  -0.016265   0.006396   0.002883   0.000000  -0.000069
    39  H    0.022839   0.030043   0.172083   0.114597  -0.005627   0.002059
    40  H   -0.000007  -0.000008   0.000007   0.000000   0.000000   0.000000
             19         20         21         22         23         24
     1  N    0.000004  -0.064093   0.000005  -0.045830  -0.012714   0.000035
     2  C   -0.000011  -0.007239  -0.000009   0.379855   0.006776  -0.000036
     3  C    0.000084   0.142245   0.000854   1.579523  -0.189525  -0.008763
     4  C    0.000013  -0.384827   0.000171   0.663602   0.253689   0.002051
     5  C   -0.000028  -0.206870   0.000019  -1.096142   0.195561  -0.000362
     6  C   -0.000001  -0.017882   0.000001  -0.796706   0.048212   0.000080
     7  C   -0.000002   0.026110   0.000000  -0.230991   0.069903   0.000325
     8  N    0.000000  -0.002215   0.000000  -0.101847   0.007634  -0.000002
     9  O    0.000000  -0.000636   0.000000   0.000791  -0.000012   0.000000
    10  O    0.000000  -0.002357   0.000000   0.040072   0.016082  -0.000017
    11  H    0.000000   0.000001   0.000000   0.000477  -0.000042   0.000000
    12  H    0.000000  -0.004438   0.000000  -0.003324   0.003917   0.000000
    13  C    0.019514   1.183339   0.079209  -6.410677  -3.556321   0.063300
    14  C    0.026200  -1.521428   0.107652  -3.716445  -1.763815   0.017800
    15  C    0.026193  -2.768640  -0.016299   5.756643   1.336451  -0.011043
    16  C   -0.024020  -0.337685  -0.004130   0.552178   0.268502   0.002189
    17  H   -0.004483   0.016520  -0.000140  -0.009637   0.001622   0.000000
    18  C    0.267627   0.648469   0.019997   0.130144   0.099841  -0.006099
    19  H    0.527519   0.007699  -0.004767   0.006920  -0.009718  -0.000003
    20  C    0.007699  12.576160   0.179535  -2.753127  -0.633571  -0.051125
    21  H   -0.004767   0.179535   0.536587   0.012993  -0.077602   0.001981
    22  C    0.006920  -2.753127   0.012993  12.574544  -0.316519   0.034024
    23  C   -0.009718  -0.633571  -0.077602  -0.316519   9.912667   0.269437
    24  H   -0.000003  -0.051125   0.001981   0.034024   0.269437   0.472048
    25  S   -0.000043  -0.500803   0.004310   0.356552  -0.098083   0.010575
    26  C    0.000000  -0.000232   0.000000   0.056187   0.003735   0.000000
    27  C    0.000000  -0.000205   0.000000   0.015073   0.000935   0.000000
    28  C    0.000000  -0.000011   0.000000  -0.003310   0.000071   0.000000
    29  H    0.000000   0.000000   0.000000   0.000000   0.000000   0.000000
    30  C    0.000000   0.000002   0.000000   0.001036  -0.000021   0.000000
    31  H    0.000000   0.000000   0.000000   0.000000   0.000000   0.000000
    32  C    0.000000  -0.000028   0.000000  -0.013461   0.000249   0.000000
    33  H    0.000000   0.000000   0.000000   0.000002   0.000000   0.000000
    34  C    0.000000   0.000195   0.000000  -0.017511  -0.001629   0.000000
    35  C    0.000000   0.000072   0.000000   0.005438  -0.000183   0.000000
    36  H    0.000000   0.000000   0.000000  -0.000001   0.000000   0.000000
    37  C    0.000000  -0.003311   0.000000  -0.011030   0.005384  -0.000001
    38  S    0.000000   0.000316   0.000000  -0.007972  -0.000594   0.000000
    39  H   -0.000154  -0.017367   0.000015  -0.020551   0.004931   0.000001
    40  H    0.000000   0.000000   0.000000  -0.000213   0.000003   0.000000
             25         26         27         28         29         30
     1  N    0.038031  -0.020153  -0.027487  -0.002213   0.000000   0.000166
     2  C    0.130159   0.178400   0.009659   0.025963   0.000000  -0.006254
     3  C   -0.180472   0.256819  -0.033423  -0.017267   0.000001   0.000572
     4  C    0.147565  -1.406832  -0.457902  -0.207098   0.000019   0.062326
     5  C    0.095341  -1.185768  -1.716673  -0.378457   0.000170   0.012160
     6  C    0.001863  -0.346024  -0.839422   0.136068   0.000862   0.008334
     7  C   -0.142334  -0.292340  -0.245419  -0.007129  -0.000008   0.000929
     8  N    0.013740  -0.261398  -0.226735  -0.063754   0.000005   0.014401
     9  O   -0.002064  -0.026041  -0.040494  -0.002284   0.000000   0.000073
    10  O   -0.027534   0.021638   0.001953  -0.000630   0.000000   0.000278
    11  H    0.000822  -0.089665  -0.026301  -0.004456   0.000000   0.001101
    12  H   -0.001808  -0.000115   0.000042   0.000001   0.000000   0.000000
    13  C   -0.990120   0.018195   0.000719  -0.000205   0.000000   0.000050
    14  C   -0.099523   0.129217   0.018293  -0.000229   0.000000   0.000023
    15  C    0.836388  -0.035600  -0.003894   0.000195   0.000000  -0.000059
    16  C    0.105336  -0.003731  -0.001196  -0.000028   0.000000   0.000000
    17  H   -0.000205   0.000000   0.000000   0.000000   0.000000   0.000000
    18  C   -0.015383   0.000024   0.000051   0.000002   0.000000   0.000000
    19  H   -0.000043   0.000000   0.000000   0.000000   0.000000   0.000000
    20  C   -0.500803  -0.000232  -0.000205  -0.000011   0.000000   0.000002
    21  H    0.004310   0.000000   0.000000   0.000000   0.000000   0.000000
    22  C    0.356552   0.056187   0.015073  -0.003310   0.000000   0.001036
    23  C   -0.098083   0.003735   0.000935   0.000071   0.000000  -0.000021
    24  H    0.010575   0.000000   0.000000   0.000000   0.000000   0.000000
    25  S   16.048386  -0.016545  -0.001807   0.000315   0.000000  -0.000068
    26  C   -0.016545  24.037869   5.854861  -1.555744   0.107808  -1.437305
    27  C   -0.001807   5.854861  24.448814   1.156787   0.079276  -0.543053
    28  C    0.000315  -1.555744   1.156787  12.506177   0.179433   0.652521
    29  H    0.000000   0.107808   0.079276   0.179433   0.536587   0.019778
    30  C   -0.000068  -1.437305  -0.543053   0.652521   0.019778   5.836726
    31  H    0.000000   0.026046   0.019780   0.007345  -0.004765   0.267919
    32  C    0.002871  -1.117148  -1.073896  -0.348170  -0.004110   0.398565
    33  H    0.000000   0.009987   0.006241   0.016544  -0.000140   0.001132
    34  C    0.006460 -11.253801  -9.642363  -2.707081  -0.016361   0.605608
    35  C   -0.000607  -1.761054  -3.532428  -0.601340  -0.077512   0.100487
    36  H    0.000000   0.017972   0.063375  -0.051902   0.001982  -0.006160
    37  C   -0.007848  -3.617324  -6.340053  -2.712442   0.012994   0.122493
    38  S   -0.000004  -0.086645  -0.978434  -0.500173   0.004343  -0.015986
    39  H    0.001224  -0.000007  -0.000007   0.000000   0.000000   0.000000
    40  H    0.000115   0.029423   0.022467  -0.017442   0.000015   0.002036
             31         32         33         34         35         36
     1  N    0.000000   0.000055   0.000000   0.013773   0.007651  -0.000002
     2  C   -0.000002   0.027024   0.000008  -0.112282   0.069924   0.000334
     3  C   -0.000001  -0.020114   0.000009  -0.033077   0.046501   0.000081
     4  C   -0.000028  -0.363801   0.000229   0.894552   0.194725  -0.000358
     5  C    0.000013   0.030836  -0.000288   0.973468   0.245980   0.002095
     6  C    0.000082  -0.293910  -0.000810   0.434994  -0.181886  -0.008782
     7  C   -0.000011   0.195426   0.000055   0.311100   0.006444  -0.000038
     8  N    0.000004   0.064489   0.000358   0.263624  -0.013178   0.000035
     9  O    0.000000   0.000524   0.000000   0.018003   0.015860  -0.000017
    10  O    0.000000  -0.003678   0.000001  -0.014832  -0.000016   0.000000
    11  H    0.000000   0.013297  -0.000011   0.071391   0.003887   0.000000
    12  H    0.000000   0.000003   0.000000  -0.000006  -0.000041   0.000000
    13  C    0.000000  -0.001194   0.000000  -0.003872   0.000939   0.000000
    14  C    0.000000  -0.003730   0.000000  -0.035665   0.003748   0.000000
    15  C    0.000000   0.001979   0.000000   0.009110  -0.001633   0.000000
    16  C    0.000000   0.000163   0.000000   0.001979   0.000250   0.000000
    17  H    0.000000   0.000000   0.000000   0.000000   0.000000   0.000000
    18  C    0.000000   0.000000   0.000000  -0.000060  -0.000021   0.000000
[...]
 -0.00000025,-0.00000077,-0.00000087,0.00000625,0.00000897,-0.00000469,
 -0.00000017,-0.00000009,-0.00000104,-0.00000317,-0.00001274,-0.0000010
 4,-0.00000021,0.00000052,-0.00000032,0.00000741,-0.00000919,-0.0000148
 6,0.00000362,0.00000272,0.00000342,-0.00000091,-0.00000131,0.00000033,
 -0.00001654,-0.00000401,0.00000519,-0.00401474,0.00125964,-0.00258401,
 -0.01071640,0.00028309,0.01013965,0.00167219,-0.00128024,0.00139948,-0
 .00001822,0.00018257,-0.00055676,0.00024642,0.00001407,-0.00005230,-0.
 00007650,0.00011763,-0.00005292,0.00001440,-0.00000599,0.00019655,0.00
 000794,0.00000991,-0.00002625,-0.00056125,0.00002227,0.00080094,-0.100
 84180,-0.07840781,0.04424055,0.10679243,0.07342743,0.00002413,0.000006
 74,-0.00007133,-0.00005393,0.00000362,0.00017618,-0.00002213,-0.000045
 08,-0.00005272,-0.00002702,-0.00008682,0.00005349,0.00006027,-0.000003
 91,0.00004976,0.00169141,0.00040701,0.00059584,-0.00006262,0.00020608,
 0.00007949,-0.00016195,0.00008936,-0.00040672,-0.00000345,-0.00007200,
 -0.00014908,0.00004729,-0.00002364,-0.00005878,0.00003586,-0.00000846,
 -0.00002600,0.00000775,0.00000116,-0.00000232,-0.00000357,-0.00001125,
 -0.00000201,0.00000272,-0.00001223,-0.00000932,-0.00000249,0.00000914,
 0.00000685,0.00000636,-0.00000005,-0.00000999,0.00000070,-0.00000022,-
 0.00000031,-0.00000538,-0.00000740,0.00000171,0.00000038,0.00000003,0.
 00000034,0.00000219,0.00000849,0.00000280,0.00000032,-0.00000046,0.000
 00001,-0.00001138,0.00000163,0.00001469,-0.00000550,0.00000486,0.00000
 714,0.00000053,0.00000086,-0.00000095,0.00001298,0.00000330,-0.0000025
 4,-0.00132485,-0.00317795,-0.00114998,-0.01095475,-0.00408893,0.011961
 54,-0.00043336,0.00112578,0.00078545,0.00038467,-0.00003259,-0.0002996
 1,0.00025549,0.00013401,-0.00018952,0.00001807,-0.00005086,0.00001273,
 0.00001211,0.00006756,0.00007747,0.00001443,-0.00000804,-0.00002295,-0
 .00042986,0.00000605,0.00082377,0.11874000,0.04480802,-0.11593512,-0.1
 2507187,-0.04606478,0.11579479,-0.00019281,-0.00088477,-0.00082566,-0.
 00244802,-0.00101831,-0.00023622,0.00089351,0.00088988,0.00103130,0.00
 599370,0.00043498,-0.00389944,0.00723143,0.00865439,0.01225502,-0.1305
 0023,-0.03605792,0.09674166,-0.00126135,-0.00799149,-0.00851780,-0.023
 52329,-0.01059695,0.03243699,0.00187875,0.00063849,-0.00076621,0.00021
 344,0.00119303,0.00213403,0.00037244,0.00065581,0.00092943,0.00000428,
 -0.00006460,-0.00013872,-0.00006898,-0.00040867,-0.00003177,-0.0001028
 9,-0.00025162,-0.00018002,0.00002266,0.00028514,0.00030118,0.00018888,
 0.00010712,-0.00030853,-0.00000219,0.00000787,-0.00000978,-0.00011724,
 -0.00022735,0.00002529,-0.00000082,0.00001455,0.00001842,0.00011351,0.
 00023892,-0.00000568,0.00000508,-0.00001809,-0.00000122,-0.00060705,-0
 .00020713,-0.00049457,-0.00038399,0.00009377,0.00088866,0.00000695,0.0
 0008286,-0.00005463,0.00028017,0.00000580,-0.00037842,-0.09041553,-0.0
 3399167,-0.02541062,0.00093458,0.00231505,0.01088172,-0.00217401,-0.00
 103656,0.00434049,0.00038370,0.00025866,0.00109111,-0.00189919,-0.0010
 7497,-0.00067000,-0.00005706,0.00026827,-0.00005552,-0.00163177,-0.004
 10751,-0.00061372,0.00027407,-0.00049012,-0.00097279,0.00286256,-0.007
 22024,-0.02197738,-0.02068882,-0.00780398,0.02970513,0.00216181,-0.001
 00335,-0.00019385,0.35573118,-0.00051665,-0.00051401,-0.00025331,0.002
 30852,0.00050456,-0.00091054,0.00064381,0.00096490,-0.00080616,-0.0021
 9792,0.00001994,-0.00298764,0.01107331,0.00959521,-0.01069572,-0.03158
 677,-0.07457334,0.00213504,-0.00224298,-0.00346065,-0.00636863,-0.0185
 0418,0.00032413,0.02614741,-0.00078761,0.00023643,0.00102277,-0.001203
 29,-0.00003690,0.00251242,0.00100727,-0.00003141,0.00087257,0.00005819
 ,-0.00002051,-0.00007777,-0.00004728,0.00006751,0.00002780,0.00005179,
 0.00006939,-0.00002584,-0.00001699,-0.00008222,-0.00011899,-0.00003178
 ,0.00006494,0.00014576,0.00000302,-0.00000593,0.00000154,0.00010886,0.
 00015419,-0.00008798,0.00000405,0.00000220,0.00000390,-0.00002665,-0.0
 0015865,-0.00009458,-0.00000046,-0.00000375,-0.00000323,0.00005823,-0.
 00079543,0.00022483,-0.00008377,0.00000803,0.00021635,-0.00000119,0.00
 000153,-0.00000507,-0.00000575,-0.00015004,-0.00019492,-0.02800267,-0.
 09891874,-0.06959282,0.01034959,0.00862826,-0.00668965,-0.00342844,-0.
 00017390,0.00004057,-0.00015924,0.00053880,0.00039235,0.00379588,0.000
 72313,-0.00239250,0.00028230,-0.00024491,0.00012374,-0.00646266,0.0038
 5505,0.00647036,-0.00009417,0.00011591,-0.00051402,-0.00767098,-0.0116
 7147,-0.02432408,-0.00848226,0.00306939,0.00632935,-0.00060395,-0.0001
 1499,-0.00268490,0.14035172,0.23345464,-0.00055433,0.00027820,0.001868
 23,0.00761390,0.00730107,-0.00274775,0.00153885,-0.00066572,-0.0029779
 1,-0.00881577,-0.00939063,0.00474656,0.01632798,-0.00347155,-0.0457366
 1,0.09836993,0.00782917,-0.25266296,0.00230346,0.00485324,0.00784037,0
 .02405605,0.01250689,-0.00601625,-0.00526334,-0.00321405,0.00442921,-0
 .00296305,-0.00271622,0.00069253,-0.00126917,-0.00044586,-0.00207398,0
 .00008384,0.00009331,0.00003263,0.00028487,0.00071317,0.00015648,0.000
 16559,0.00064819,0.00016910,0.00005739,-0.00059622,-0.00067729,-0.0004
 5574,-0.00012286,0.00077708,-0.00000048,-0.00002228,0.00000438,0.00035
 434,0.00061746,-0.00013084,0.00000678,-0.00002472,-0.00003764,-0.00024
 984,-0.00065520,-0.00013854,0.00000168,0.00002256,0.00000260,-0.000443
 81,0.00003677,0.00034514,0.00064423,-0.00010472,-0.00146230,-0.0000323
 1,-0.00014559,0.00009005,-0.00052690,-0.00019647,0.00061024,-0.0080802
 0,-0.05541274,-0.20311594,0.03118694,0.00821933,-0.03400473,-0.0010112
 8,-0.00341902,-0.00599175,-0.00023263,-0.00064016,-0.00048909,0.012575
 28,0.00590462,-0.00489680,0.00002944,0.00015116,-0.00011107,-0.0075391
 6,0.00192567,0.02466155,-0.00017624,0.00031289,0.00033919,-0.02308331,
 -0.02752492,-0.02834410,0.02567024,0.00452603,-0.02748846,-0.00157159,
 -0.00369957,-0.00438076,-0.13671780,0.08028700,0.62377119,-0.00099229,
 -0.00082418,0.00116032,0.00459741,0.00421367,-0.00030479,0.00068738,0.
 00092752,0.00057864,-0.00144298,-0.00141204,-0.00034400,-0.00071615,-0
 .00156766,-0.00466361,-0.02336454,-0.00860240,0.01434854,0.00111306,0.
 00005706,0.00034624,0.00496244,0.00133094,0.00073349,-0.00454535,-0.00
 050095,0.00363800,-0.00070093,-0.00020269,0.00033945,-0.00022719,-0.00
 007818,-0.00071994,0.00011559,0.00006396,-0.00000970,0.00020882,0.0004
 8770,0.00009203,0.00009167,0.00058277,0.00034513,-0.00002622,-0.000470
 34,-0.00044089,-0.00026801,-0.00003998,0.00048585,0.00000460,-0.000014
 41,0.00000613,0.00021174,0.00035107,-0.00010397,0.00000748,-0.00001366
 ,-0.00001891,-0.00013936,-0.00037078,-0.00009744,0.00000099,0.00001194
 ,0.,0.00022542,-0.00005141,-0.00048619,0.00035926,-0.00011435,-0.00082
 684,-0.00001201,-0.00008366,0.00004960,-0.00045688,-0.00031758,0.00034
 860,-0.02292505,-0.02647674,-0.01986925,0.00320918,-0.00737343,-0.0043
 7222,0.00008258,-0.00379363,0.00091225,0.00003453,0.00009537,0.0000865
 5,-0.00190946,-0.00024977,0.00153414,-0.00035817,0.00020592,-0.0002383
 1,-0.00090972,-0.00183645,-0.00293133,-0.00006411,0.00029150,-0.000324
 24,0.00552712,0.00066404,0.00156563,-0.05322505,0.00295046,0.04230629,
 -0.00008091,0.00855999,0.01764670,-0.10410755,-0.05958349,-0.02166947,
 0.19557117,-0.00187514,-0.00077484,0.00157202,0.00598031,0.00504333,-0
 .00355009,0.00068248,0.00120021,0.00045209,-0.00090282,-0.00211438,0.0
 0043755,0.00092162,-0.00198925,-0.00406414,-0.00983734,-0.00446993,0.0
 1714646,-0.00026400,0.00201325,0.00126377,0.00235059,0.00455975,-0.003
 06186,-0.00348606,-0.00231119,0.00299197,0.00000201,-0.00051730,-0.000
 14847,0.00003600,-0.00005909,-0.00102570,0.00004463,0.00009171,-0.0000
 6224,0.00013925,0.00030128,0.00004670,0.00009450,0.00037009,0.00021213
 ,0.00002388,-0.00031404,-0.00034762,-0.00021330,-0.00003908,0.00035588
 ,-0.00000048,-0.00000965,-0.00000095,0.00015148,0.00024914,-0.00006599
 ,0.00000438,-0.00001160,-0.00001320,-0.00011105,-0.00026635,-0.0000488
 2,-0.00000229,0.00001000,-0.00000042,0.00000709,-0.00006914,-0.0002560
 3,0.00022365,-0.00005208,-0.00054863,-0.00001935,-0.00005479,0.0000348
 5,-0.00026096,-0.00017261,0.00029546,-0.02052577,-0.01641979,-0.018778
 43,-0.01448829,-0.00804696,-0.02391150,-0.00334969,0.00483844,0.003007
 20,0.00014898,0.00003831,-0.00000095,-0.00385930,-0.00213048,0.0012893
 4,0.00011294,-0.00068186,0.00012215,0.00012829,-0.00066606,-0.00369332
 ,0.00038371,-0.00055069,-0.00005464,0.00191417,0.00450613,-0.00197363,
 -0.00404551,-0.04766550,-0.03857535,0.00074144,0.00269710,0.00964585,-
 0.04388848,-0.07022808,-0.02494042,0.09334650,0.13405017,-0.00068992,-
 0.00100001,0.00067782,0.00198624,-0.00107550,-0.00357812,0.00044952,0.
 00030505,-0.00017344,-0.00040084,0.00024043,0.00083343,0.00042844,0.00
 256411,0.00200400,0.01897357,0.01591503,0.00220814,0.00002343,0.001173
 24,0.00372168,0.00447523,-0.00076932,-0.00620801,0.00003791,-0.0006772
 7,-0.00307444,0.00111606,0.00065300,-0.00183698,-0.00012251,-0.0000573
 9,-0.00081240,-0.00002186,-0.00005372,0.00000935,-0.00010348,-0.000273
 09,-0.00006850,-0.00007219,-0.00032787,-0.00027114,0.00004879,0.000195
 53,0.00010399,0.00007753,0.00004215,-0.00013505,-0.00000064,0.00000029
 ,-0.00000395,-0.00003019,-0.00007061,0.00000552,-0.00000199,0.00000286
 ,0.00000837,0.00001961,0.00005060,0.00002468,0.00000282,-0.00000465,0.
 00000099,-0.00050389,-0.00012978,0.00058289,-0.00030403,0.00009298,0.0
 0065032,0.00001337,0.00002839,-0.00001785,0.00033471,0.00028524,-0.000
 17541,-0.00650114,-0.01203941,-0.01393522,-0.02357294,-0.03806153,-0.0
 4589960,0.00207844,0.00342055,0.01287788,0.00021682,0.00012500,-0.0002
 2141,-0.00840014,-0.00475310,0.00035110,-0.00044410,0.00008927,-0.0000
 6915,0.00363511,-0.00008439,-0.00586837,-0.00004038,0.00002417,-0.0003
 1326,0.00379425,0.00011696,-0.00096064,0.02380264,-0.04967850,-0.20096
 198,-0.00082734,-0.00316163,-0.00758004,0.00966322,0.00070671,-0.04654
 665,-0.02913760,0.08610172,0.31442819,-0.00105791,0.00114098,0.0010682
 7,0.00020958,0.00009282,0.00003673,-0.00008126,-0.00032707,-0.00027152
 ,0.00015513,-0.00017509,0.00024345,-0.00000986,0.00009515,-0.00004292,
 0.00005708,-0.00000022,0.00002241,-0.00002699,-0.00003703,0.00008128,0
 .00000384,0.00001596,0.00002067,-0.00008101,-0.00002922,-0.00005531,0.
 00000038,0.00000662,-0.00005052,-0.00000340,0.00000354,-0.00000214,-0.
 00015444,0.00179815,0.00209477,0.00456044,-0.00346620,0.00056924,-0.00
 289555,-0.00407808,0.00794989,-0.11045726,-0.07128951,0.11088231,0.000
 97587,-0.00374326,0.00427152,-0.00324943,0.00178655,-0.00191666,0.0062
 5144,-0.00124879,0.00318287,-0.00013540,-0.00021154,0.00014992,-0.0004
 0261,0.00042170,-0.00041849,-0.00092715,0.00043800,-0.00040034,-0.0019
 7128,0.00156127,-0.00058973,-0.00000711,-0.00013949,0.00058865,-0.0000
 4939,-0.00013411,-0.00007454,-0.00031124,-0.00023293,-0.00010591,0.000
 01479,-0.00000653,0.00001302,-0.00000254,0.00000895,-0.00000557,0.0000
 0121,0.00000037,0.00000457,0.00000062,-0.00000079,0.00000040,-0.000003
 63,-0.00000088,0.00000053,0.00000025,-0.00000084,-0.00000011,-0.000004
 49,-0.00000205,0.00000060,0.00000044,-0.00000109,0.,-0.00000283,0.0000
 0274,-0.00000480,0.00000791,0.00000084,-0.00000967,0.00000002,-0.00000
 045,0.00000096,0.00001095,0.00000933,-0.00002875,0.00000315,-0.0000055
 7,0.00000823,0.10958171,-0.00020537,0.00095107,0.00058453,0.00090142,0
 .00040145,-0.00157287,-0.00153454,-0.00206648,0.00059827,0.00004213,0.
 00041110,0.00028050,0.00015485,0.00031114,0.00029308,0.00012002,0.0000
 6046,-0.00008256,-0.00014433,-0.00018415,-0.00001204,0.00004246,0.0001
 1785,0.00015366,-0.00032473,-0.00023071,0.00031029,0.00005988,0.000066
 40,-0.00002367,-0.00000445,0.00000110,-0.00000585,0.00248411,-0.001049
 47,-0.00206756,-0.00208181,-0.00286138,-0.00311843,-0.01369968,-0.0069
 8848,0.02261006,-0.07389148,-0.11718399,0.09584800,0.00879728,0.010911
 52,-0.01343802,0.00156912,0.00021317,0.00073739,-0.00132587,-0.0001818
 8,-0.00399166,0.00046570,0.00035397,-0.00061603,0.00013218,-0.00094011
 ,-0.00052894,0.00033343,-0.00004822,0.00028525,0.00173995,0.00100260,-
 0.00016194,-0.00095406,-0.00041979,0.00106647,-0.00011162,-0.00038247,
 -0.00017824,-0.00031963,-0.00044999,0.00020992,-0.00001527,0.00000803,
 0.00000919,0.00001453,0.00000609,0.00001828,-0.00000044,-0.00000124,-0
 .00000857,-0.00000084,0.00000025,0.00000044,0.00000656,0.00000295,0.00
 000030,-0.00000005,0.00000076,0.00000072,-0.00000303,0.00000102,0.0000
 0323,0.00000003,0.00000078,0.00000014,0.00000475,-0.00000692,0.0000017
 8,0.00000177,-0.00000493,-0.00002384,-0.00000001,0.00000292,0.00000109
 ,-0.00000070,0.00000248,-0.00000489,0.00000116,-0.00001165,-0.00001655
 ,0.07774997,0.11818596,0.00173709,-0.00083836,-0.00242857,-0.00003086,
 -0.00046161,-0.00011169,-0.00013372,0.00000985,0.00013590,0.00002293,-
 0.00003305,0.00004167,-0.00001225,0.00005697,-0.00010245,-0.00000593,-
 0.00006412,-0.00005035,-0.00001491,-0.00004639,-0.00004281,-0.00001618
 ,-0.00001301,0.00000567,-0.00004641,0.00003732,-0.00001181,0.00001319,
 0.00002667,0.00001530,-0.00000613,-0.00000941,-0.00000245,0.00125879,-
 0.00168410,-0.00015300,0.00067111,-0.00193203,0.00156547,-0.00319320,-
 0.00297115,0.00661746,0.11304925,0.09452821,-0.21055276,0.01454638,0.0
 1369973,-0.01630278,-0.00179150,0.00071030,0.00017988,0.00214843,-0.00
 480799,-0.00164270,0.00071275,0.00065143,-0.00073166,-0.00047592,-0.00
 045125,-0.00007002,-0.00035952,0.00028244,-0.00016904,-0.00061540,0.00
 063329,-0.00023367,-0.00019716,-0.00035817,0.00019130,0.00000123,-0.00
 010470,0.00001209,-0.00002804,0.00028951,0.00009928,-0.00001831,-0.000
 03336,-0.00004513,-0.00003216,-0.00002743,-0.00001618,0.00002079,0.000
 02095,0.00001939,-0.00000025,-0.00000026,0.00000002,-0.00003251,-0.000
 01853,0.00000525,-0.00000008,0.00000014,0.00000119,0.00001598,-0.00000
 143,-0.00003939,0.00000113,-0.00000032,-0.00000044,0.00002092,0.000024
 78,0.00003582,-0.00000964,0.00000915,0.00003964,0.00000541,0.00000147,
 0.00000037,-0.00002639,0.00000762,0.00006107,0.00003496,0.00002681,-0.
 00000109,-0.12721395,-0.09715905,0.22368168,0.00002993,0.00012265,0.00
 012367,-0.00013241,-0.00012969,0.00000715,0.00009900,0.00009300,-0.000
 05216,0.00006355,0.00031364,0.00026605,0.00020095,0.00021608,0.0003184
 1,-0.00186243,-0.00133152,0.00016871,0.00119061,0.00023991,-0.00111020
 ,0.00020263,0.00016251,0.00243381,0.00005580,0.00003680,-0.00002482,-0
 .00033720,-0.00015411,0.00023498,0.00091787,0.00063656,-0.00212276,0.0
 0000702,-0.00000128,0.00000028,0.00000574,0.00004019,0.00001193,0.0000
 0425,0.00001618,0.00003402,-0.00000797,-0.00001693,-0.00001714,-0.0000
 1006,0.00000077,0.00002264,0.00000048,-0.00000007,0.00000087,0.0000118
 2,0.00002018,-0.00000723,0.00000046,0.00000015,0.00000030,-0.00000162,
 -0.00001949,-0.00001223,0.00000009,-0.00000025,0.00000069,0.00001766,-
 0.00000554,-0.00003254,0.00001304,-0.00001429,-0.00003726,0.00000090,-
 0.00000163,0.00000276,-0.00001396,-0.00002550,-0.00001239,-0.01264382,
 -0.00244252,0.01529300,0.00024725,-0.00362835,-0.00229109,-0.00026105,
 -0.00003457,-0.00074704,-0.00028651,0.00047922,-0.00006099,0.00309368,
 -0.00234874,0.00014277,0.00005790,-0.00004441,-0.00015140,0.00376476,-
 0.00064188,-0.00151490,-0.00024822,0.00202560,-0.00076471,-0.23225868,
 -0.05418528,0.13686800,-0.00061605,-0.00028328,0.00090471,-0.00016642,
 -0.00022327,-0.00019739,0.00061917,0.00163530,-0.00058557,-0.00054167,
 -0.00030250,-0.00001083,-0.00000005,-0.00000341,0.00000008,0.23878352,
 0.00000190,0.00003711,0.00005324,-0.00010772,-0.00005309,0.00002408,-0
 .00000007,0.00004952,-0.00006070,0.00016224,0.00005100,0.00005482,-0.0
 0020659,0.00024333,0.00010037,-0.00069477,-0.00058859,-0.00014138,0.00
 016652,0.00014238,-0.00047996,0.00077462,0.00007947,0.00044483,0.00004
 926,0.00000501,-0.00002614,-0.00006641,-0.00014816,0.00006660,-0.00007
 688,0.00162878,0.00062884,0.00000110,-0.00000785,-0.00000011,0.0000009
 2,-0.00001625,-0.00000065,-0.00001274,-0.00000651,-0.00001478,0.000004
 38,0.00001521,0.00001063,0.00000667,-0.00000576,-0.00001479,-0.0000006
 6,0.00000054,-0.00000096,-0.00000967,-0.00001515,0.00000666,-0.0000007
 1,0.00000029,0.00000016,0.00000308,0.00001633,0.00000730,-0.00000079,0
 .00000026,-0.00000017,0.00000943,0.00000149,0.00000821,0.00000130,0.00
 000561,0.00000312,0.00000024,0.00000288,0.00000015,0.00000328,0.000018
 82,-0.00000471,-0.01314525,-0.00065700,0.01169139,-0.00400739,0.002449
 98,-0.00357303,0.00019665,-0.00069931,-0.00012307,0.00057407,-0.000815
 06,0.00040791,-0.00318181,0.00497907,-0.00374122,0.00035086,0.00015727
 ,-0.00032283,0.00845638,0.00630977,-0.00729005,0.00222882,-0.00302219,
 0.00147790,-0.05203887,-0.05265912,0.02619853,-0.00075498,0.00002504,0
 .00060310,-0.00016832,-0.00015942,-0.00015110,0.00184816,-0.00121571,0
 .00118706,-0.00016381,-0.00034249,0.00010109,-0.00000221,-0.00000126,-
 0.00000091,0.05979975,0.04419375,-0.00000078,0.00004104,0.00005951,-0.
 00004814,-0.00011158,-0.00007096,0.00002648,-0.00002476,-0.00008242,0.
 00008049,0.00012221,0.00008311,0.00019761,0.00003585,0.00015880,-0.000
 99204,-0.00059793,0.00040073,0.00022982,-0.00016937,-0.00083226,0.0004
 4037,0.00042735,-0.00270052,0.00002803,0.00005398,0.00002168,-0.000136
 89,-0.00006256,0.00016168,-0.00125397,0.00021725,-0.00372898,-0.000005
 58,-0.00000753,-0.00000377,-0.00001985,-0.00001881,-0.00000286,0.00000
 177,-0.00004457,-0.00002016,-0.00000248,0.00003341,0.00001870,0.000015
 15,-0.00000154,-0.00002647,0.00000068,0.00000049,-0.00000025,-0.000012
 81,-0.00001748,0.00000696,0.00000010,0.00000055,0.00000133,0.00000939,
 0.00001940,0.00000533,0.00000019,-0.00000069,0.00000059,-0.00002810,0.
 00000458,0.00005590,-0.00000838,0.00000194,0.00002379,0.00000240,0.000
 00422,-0.00000069,0.00002177,0.00001957,-0.00001321,-0.00852945,-0.001
 77822,0.01027117,-0.00065923,-0.00282222,0.00056470,-0.00080217,-0.000
 33401,-0.00045750,-0.00012040,0.00039008,-0.00004333,-0.00035180,-0.00
 464392,-0.00363700,0.00112120,0.00045581,-0.00072657,0.02524407,0.0068
 4431,-0.01443374,-0.00093496,0.00147738,0.00041887,0.13417790,0.026843
 89,-0.15354771,-0.00051092,-0.00043082,0.00035466,-0.00014105,-0.00007
 671,-0.00009437,0.00004301,0.00116019,-0.00056625,0.00000019,0.0001205
 7,0.00022451,0.00000063,-0.00000190,-0.00000045,-0.14708223,-0.0271294
 2,0.16815745\\0.00000014,-0.00000066,0.,0.00000088,-0.00000016,-0.0000
 0044,0.00000101,0.00000031,0.00000087,0.,-0.00000035,-0.00000115,-0.00
 000021,0.00000037,0.00000121,-0.00000021,-0.00000153,-0.00000036,-0.00
 000145,0.00000055,0.00000021,-0.00000011,0.00000079,-0.00000034,0.0000
 0060,-0.00000086,0.00000076,-0.00000067,0.00000060,-0.00000045,-0.0000
 0094,0.00000032,-0.00000068,0.00000058,-0.00000071,0.00000029,-0.00000
 047,0.00000005,0.00000005,0.00000016,-0.00000129,-0.00000016,0.0000010
 4,0.00000089,0.00000067,0.00000084,-0.00000040,-0.00000018,0.00000125,
 -0.00000030,0.00000049,0.00000055,-0.00000025,0.00000014,0.00000075,0.
 00000004,0.00000018,0.00000006,0.00000012,0.00000012,-0.00000019,0.000
 00042,-0.00000011,-0.00000014,0.00000109,-0.00000036,-0.00000050,0.000
 00052,-0.00000012,-0.00000086,0.00000069,-0.00000030,-0.00000101,0.000
 00009,-0.00000017,0.00000056,0.00000047,0.00000070,0.00000019,0.000000
 07,-0.00000005,0.00000005,-0.00000006,-0.00000010,0.00000006,-0.000000
 36,0.00000009,-0.00000015,0.00000032,-0.00000015,-0.00000048,0.0000003
 4,-0.00000020,-0.00000054,0.00000088,0.00000013,-0.00000075,0.00000090
 ,-0.00000041,-0.00000084,-0.00000005,-0.00000056,0.00000041,-0.0000011
 1,0.00000003,0.00000051,-0.00000109,0.00000033,-0.00000110,-0.00000064
 ,-0.00000045,0.00000088,-0.00000038,-0.00000006,0.00000060,-0.00000048
 ,0.00000032,-0.00000048,0.00000086,0.00000022\\\@


 THE SECRET OF SUCCESS IN LIFE IS TO EAT WHAT YOU LIKE, AND LET THE FOOD
 FIGHT IT OUT INSIDE YOU. -- FROM A FORTUNE COOKIE
 Job cpu time:  0 days 17 hours 54 minutes  4.4 seconds.
 File lengths (MBytes):  RWF=   2739 Int=      0 D2E=      0 Chk=     32 Scr=      1
 Normal termination of Gaussian 09 at Thu Sep 14 21:40:57 2023.
