 Entering Link 1 = C:\G09W\l1.exe PID=     12852.
  
 Copyright (c) 1988,1990,1992,1993,1995,1998,2003,2009,2010,
            Gaussian, Inc.  All Rights Reserved.
  
 This is part of the Gaussian(R) 09 program.  It is based on
 the Gaussian(R) 03 system (copyright 2003, Gaussian, Inc.),
 the Gaussian(R) 98 system (copyright 1998, Gaussian, Inc.),
 the Gaussian(R) 94 system (copyright 1995, Gaussian, Inc.),
 the Gaussian 92(TM) system (copyright 1992, Gaussian, Inc.),
 the Gaussian 90(TM) system (copyright 1990, Gaussian, Inc.),
 the Gaussian 88(TM) system (copyright 1988, Gaussian, Inc.),
 the Gaussian 86(TM) system (copyright 1986, Carnegie Mellon
 University), and the Gaussian 82(TM) system (copyright 1983,
 Carnegie Mellon University). Gaussian is a federally registered
 trademark of Gaussian, Inc.
  
 This software contains proprietary and confidential information,
 including trade secrets, belonging to Gaussian, Inc.
  
 This software is provided under written license and may be
 used, copied, transmitted, or stored only in accord with that
 written license.
  
 The following legend is applicable only to US Government
 contracts under FAR:
  
                    RESTRICTED RIGHTS LEGEND
  
 Use, reproduction and disclosure by the US Government is
 subject to restrictions as set forth in subparagraphs (a)
 and (c) of the Commercial Computer Software - Restricted
 Rights clause in FAR 52.227-19.
  
 Gaussian, Inc.
 340 Quinnipiac St., Bldg. 40, Wallingford CT 06492
  
  
 ---------------------------------------------------------------
 Warning -- This program may not be used in any manner that
 competes with the business of Gaussian, Inc. or will provide
 assistance to any competitor of Gaussian, Inc.  The licensee
 of this program is prohibited from giving any competitor of
 Gaussian, Inc. access to this program.  By using this program,
 the user acknowledges that Gaussian, Inc. is engaged in the
 business of creating and licensing software in the field of
 computational chemistry and represents and warrants to the
 licensee that it is not a competitor of Gaussian, Inc. and that
 it will not use this program in any manner prohibited above.
 ---------------------------------------------------------------
  

 Cite this work as:
 Gaussian 09, Revision B.01,
 M. J. Frisch, G. W. Trucks, H. B. Schlegel, G. E. Scuseria, 
 M. A. Robb, J. R. Cheeseman, G. Scalmani, V. Barone, B. Mennucci, 
 G. A. Petersson, H. Nakatsuji, M. Caricato, X. Li, H. P. Hratchian, 
 A. F. Izmaylov, J. Bloino, G. Zheng, J. L. Sonnenberg, M. Hada, 
 M. Ehara, K. Toyota, R. Fukuda, J. Hasegawa, M. Ishida, T. Nakajima, 
 Y. Honda, O. Kitao, H. Nakai, T. Vreven, J. A. Montgomery, Jr., 
 J. E. Peralta, F. Ogliaro, M. Bearpark, J. J. Heyd, E. Brothers, 
 K. N. Kudin, V. N. Staroverov, T. Keith, R. Kobayashi, J. Normand, 
 K. Raghavachari, A. Rendell, J. C. Burant, S. S. Iyengar, J. Tomasi, 
 M. Cossi, N. Rega, J. M. Millam, M. Klene, J. E. Knox, J. B. Cross, 
 V. Bakken, C. Adamo, J. Jaramillo, R. Gomperts, R. E. Stratmann, 
 O. Yazyev, A. J. Austin, R. Cammi, C. Pomelli, J. W. Ochterski, 
 R. L. Martin, K. Morokuma, V. G. Zakrzewski, G. A. Voth, 
 P. Salvador, J. J. Dannenberg, S. Dapprich, A. D. Daniels, 
 O. Farkas, J. B. Foresman, J. V. Ortiz, J. Cioslowski, 
 and D. J. Fox, Gaussian, Inc., Wallingford CT, 2010.
 
 ******************************************
 Gaussian 09:  IA32W-G09RevB.01 12-Aug-2010
                05-Sep-2023 
 ******************************************
 %nprocshared=6
 Will use up to    6 processors via shared memory.
 %chk=G:\Meu Drive\POS-DOC-IME\SUBSTITUINTES-DOADORES\DPP-substituido\DPP-SUB-4b\
 DPP-SUB-4b-OPT-FREQ.chk
 -----------------------------------------------------------
 # opt=tight freq b3lyp/6-31+g(d,p) nosymm geom=connectivity
 -----------------------------------------------------------
 1/7=10,14=-1,18=20,19=15,26=3,38=1,57=2/1,3;
 2/9=110,12=2,15=1,17=6,18=5,40=1/2;
 3/5=1,6=6,7=111,11=2,16=1,25=1,30=1,71=1,74=-5/1,2,3;
 4//1;
 5/5=2,38=5/2;
 6/7=2,8=2,9=2,10=2,28=1/1;
 7/30=1/1,2,3,16;
 1/7=10,14=-1,18=20,19=15/3(2);
 2/9=110,15=1/2;
 99//99;
 2/9=110,15=1/2;
 3/5=1,6=6,7=111,11=2,16=1,25=1,30=1,71=1,74=-5/1,2,3;
 4/5=5,16=3/1;
 5/5=2,38=5/2;
 7/30=1/1,2,3,16;
 1/7=10,14=-1,18=20,19=15/3(-5);
 2/9=110,15=1/2;
 6/7=2,8=2,9=2,10=2,19=2,28=1/1;
 99/9=1/99;
 -------
 Energy:
 -------
 Symbolic Z-matrix:
 Charge =  0 Multiplicity = 1
 N                     1.45654  -0.55674  -0.05366 
 C                     0.81771  -0.46435   1.21282 
 C                     2.4529    0.40343  -0.23654 
 C                     2.52951   1.11014   0.95804 
 C                     1.56614   0.59304   1.88556 
 C                     1.61927   1.35059   3.05412 
 C                     3.21695   2.23492   1.56795 
 N                     2.59053   2.33309   2.83665 
 O                    -0.13693  -1.16513   1.5314 
 O                     4.11118   2.98326   1.18458 
 H                     2.96096   2.94601   3.54954 
 H                     1.02617  -1.08555  -0.79739 
 C                     4.0461    0.19607  -3.64844 
 C                     3.30183  -0.37145  -2.54362 
 C                     2.86505  -1.72625  -2.64951 
 C                     3.11321  -2.43801  -3.801 
 H                     2.78511  -3.471    -3.86901 
 C                     3.81018  -1.85767  -4.90272 
 H                     3.9821   -2.45152  -5.79518 
 C                     4.27987  -0.5706   -4.82949 
 H                     4.83293  -0.12849  -5.653 
 C                     3.17156   0.54044  -1.46784 
 C                     4.47261   1.49411  -3.38212 
 H                     5.05108   2.14142  -4.02782 
 S                     4.0042    2.03103  -1.83379 
 C                     1.15726   1.90741   5.54425 
 C                     0.11069   1.63549   6.51042 
 C                     0.20198   2.16661   7.83433 
 H                    -0.58231   1.95064   8.55376 
 C                     1.2764    2.94984   8.16771 
 H                     1.35768   3.36322   9.16862 
 C                     2.29821   3.23538   7.21001 
 H                     3.13813   3.85683   7.50561 
 C                     2.25019   2.73608   5.93046 
 C                    -0.91713   0.86454   5.98125 
 H                    -1.80855   0.51188   6.48212 
 C                     0.88888   1.32162   4.28887 
 S                    -0.63662   0.46465   4.3435 
 H                     2.37964  -2.22092  -1.81647 
 H                     3.05417   2.93801   5.23658 
 

 GradGradGradGradGradGradGradGradGradGradGradGradGradGradGradGradGradGrad
 Berny optimization.
 Initialization pass.
                           ----------------------------
                           !    Initial Parameters    !
                           ! (Angstroms and Degrees)  !
 --------------------------                            --------------------------
 ! Name  Definition              Value          Derivative Info.                !
 --------------------------------------------------------------------------------
 ! R1    R(1,2)                  1.4215         estimate D2E/DX2                !
 ! R2    R(1,3)                  1.3957         estimate D2E/DX2                !
 ! R3    R(1,12)                 1.009          estimate D2E/DX2                !
 ! R4    R(2,5)                  1.4597         estimate D2E/DX2                !
 ! R5    R(2,9)                  1.2263         estimate D2E/DX2                !
 ! R6    R(3,4)                  1.3901         estimate D2E/DX2                !
 ! R7    R(3,22)                 1.4322         estimate D2E/DX2                !
 ! R8    R(4,5)                  1.4338         estimate D2E/DX2                !
 ! R9    R(4,7)                  1.4525         estimate D2E/DX2                !
 ! R10   R(5,6)                  1.3936         estimate D2E/DX2                !
 ! R11   R(6,8)                  1.3986         estimate D2E/DX2                !
 ! R12   R(6,37)                 1.4349         estimate D2E/DX2                !
 ! R13   R(7,8)                  1.4183         estimate D2E/DX2                !
 ! R14   R(7,10)                 1.2275         estimate D2E/DX2                !
 ! R15   R(8,11)                 1.0105         estimate D2E/DX2                !
 ! R16   R(13,14)                1.448          estimate D2E/DX2                !
 ! R17   R(13,20)                1.4274         estimate D2E/DX2                !
 ! R18   R(13,23)                1.392          estimate D2E/DX2                !
 ! R19   R(14,15)                1.4274         estimate D2E/DX2                !
 ! R20   R(14,22)                1.4163         estimate D2E/DX2                !
 ! R21   R(15,16)                1.3763         estimate D2E/DX2                !
 ! R22   R(15,39)                1.0836         estimate D2E/DX2                !
 ! R23   R(16,17)                1.086          estimate D2E/DX2                !
 ! R24   R(16,18)                1.427          estimate D2E/DX2                !
 ! R25   R(18,19)                1.0857         estimate D2E/DX2                !
 ! R26   R(18,20)                1.372          estimate D2E/DX2                !
 ! R27   R(20,21)                1.0861         estimate D2E/DX2                !
 ! R28   R(22,25)                1.7462         estimate D2E/DX2                !
 ! R29   R(23,24)                1.0819         estimate D2E/DX2                !
 ! R30   R(23,25)                1.7044         estimate D2E/DX2                !
 ! R31   R(26,27)                1.4501         estimate D2E/DX2                !
 ! R32   R(26,34)                1.4249         estimate D2E/DX2                !
 ! R33   R(26,37)                1.4111         estimate D2E/DX2                !
 ! R34   R(27,28)                1.4294         estimate D2E/DX2                !
 ! R35   R(27,35)                1.3895         estimate D2E/DX2                !
 ! R36   R(28,29)                1.086          estimate D2E/DX2                !
 ! R37   R(28,30)                1.3708         estimate D2E/DX2                !
 ! R38   R(30,31)                1.086          estimate D2E/DX2                !
 ! R39   R(30,32)                1.4293         estimate D2E/DX2                !
 ! R40   R(32,33)                1.0858         estimate D2E/DX2                !
 ! R41   R(32,34)                1.3744         estimate D2E/DX2                !
 ! R42   R(34,40)                1.081          estimate D2E/DX2                !
 ! R43   R(35,36)                1.0816         estimate D2E/DX2                !
 ! R44   R(35,38)                1.709          estimate D2E/DX2                !
 ! R45   R(37,38)                1.7506         estimate D2E/DX2                !
 ! A1    A(2,1,3)              113.1316         estimate D2E/DX2                !
 ! A2    A(2,1,12)             119.9415         estimate D2E/DX2                !
 ! A3    A(3,1,12)             124.6432         estimate D2E/DX2                !
 ! A4    A(1,2,5)              103.1366         estimate D2E/DX2                !
 ! A5    A(1,2,9)              122.9671         estimate D2E/DX2                !
 ! A6    A(5,2,9)              133.8942         estimate D2E/DX2                !
 ! A7    A(1,3,4)              106.05           estimate D2E/DX2                !
 ! A8    A(1,3,22)             122.4556         estimate D2E/DX2                !
 ! A9    A(4,3,22)             131.4908         estimate D2E/DX2                !
 ! A10   A(3,4,5)              109.6052         estimate D2E/DX2                !
 ! A11   A(3,4,7)              141.3183         estimate D2E/DX2                !
 ! A12   A(5,4,7)              109.0047         estimate D2E/DX2                !
 ! A13   A(2,5,4)              107.9151         estimate D2E/DX2                !
 ! A14   A(2,5,6)              143.1049         estimate D2E/DX2                !
 ! A15   A(4,5,6)              108.7092         estimate D2E/DX2                !
 ! A16   A(5,6,8)              106.1386         estimate D2E/DX2                !
 ! A17   A(5,6,37)             133.7219         estimate D2E/DX2                !
 ! A18   A(8,6,37)             120.0988         estimate D2E/DX2                !
 ! A19   A(4,7,8)              102.7198         estimate D2E/DX2                !
 ! A20   A(4,7,10)             133.2964         estimate D2E/DX2                !
 ! A21   A(8,7,10)             123.9828         estimate D2E/DX2                !
 ! A22   A(6,8,7)              113.4025         estimate D2E/DX2                !
 ! A23   A(6,8,11)             124.82           estimate D2E/DX2                !
 ! A24   A(7,8,11)             120.7394         estimate D2E/DX2                !
 ! A25   A(14,13,20)           120.3316         estimate D2E/DX2                !
 ! A26   A(14,13,23)           112.1476         estimate D2E/DX2                !
 ! A27   A(20,13,23)           127.5163         estimate D2E/DX2                !
 ! A28   A(13,14,15)           118.2088         estimate D2E/DX2                !
 ! A29   A(13,14,22)           111.9926         estimate D2E/DX2                !
 ! A30   A(15,14,22)           129.7418         estimate D2E/DX2                !
 ! A31   A(14,15,16)           119.8518         estimate D2E/DX2                !
 ! A32   A(14,15,39)           120.8845         estimate D2E/DX2                !
 ! A33   A(16,15,39)           119.2011         estimate D2E/DX2                !
 ! A34   A(15,16,17)           119.3309         estimate D2E/DX2                !
 ! A35   A(15,16,18)           121.5807         estimate D2E/DX2                !
 ! A36   A(17,16,18)           119.0815         estimate D2E/DX2                !
 ! A37   A(16,18,19)           119.3105         estimate D2E/DX2                !
 ! A38   A(16,18,20)           120.4964         estimate D2E/DX2                !
 ! A39   A(19,18,20)           120.1836         estimate D2E/DX2                !
 ! A40   A(13,20,18)           119.4697         estimate D2E/DX2                !
 ! A41   A(13,20,21)           119.4829         estimate D2E/DX2                !
 ! A42   A(18,20,21)           121.0459         estimate D2E/DX2                !
 ! A43   A(3,22,14)            129.6109         estimate D2E/DX2                !
 ! A44   A(3,22,25)            120.0728         estimate D2E/DX2                !
 ! A45   A(14,22,25)           110.2783         estimate D2E/DX2                !
 ! A46   A(13,23,24)           127.4117         estimate D2E/DX2                !
 ! A47   A(13,23,25)           112.5405         estimate D2E/DX2                !
 ! A48   A(24,23,25)           120.0411         estimate D2E/DX2                !
 ! A49   A(22,25,23)            93.0109         estimate D2E/DX2                !
 ! A50   A(27,26,34)           118.819          estimate D2E/DX2                !
 ! A51   A(27,26,37)           112.1882         estimate D2E/DX2                !
 ! A52   A(34,26,37)           128.9356         estimate D2E/DX2                !
 ! A53   A(26,27,28)           120.0893         estimate D2E/DX2                !
 ! A54   A(26,27,35)           112.5915         estimate D2E/DX2                !
 ! A55   A(28,27,35)           127.3095         estimate D2E/DX2                !
 ! A56   A(27,28,29)           119.5756         estimate D2E/DX2                !
 ! A57   A(27,28,30)           119.1852         estimate D2E/DX2                !
 ! A58   A(29,28,30)           121.2371         estimate D2E/DX2                !
 ! A59   A(28,30,31)           120.0218         estimate D2E/DX2                !
 ! A60   A(28,30,32)           120.7666         estimate D2E/DX2                !
 ! A61   A(31,30,32)           119.2115         estimate D2E/DX2                !
 ! A62   A(30,32,33)           119.0072         estimate D2E/DX2                !
 ! A63   A(30,32,34)           121.7545         estimate D2E/DX2                !
 ! A64   A(33,32,34)           119.2363         estimate D2E/DX2                !
 ! A65   A(26,34,32)           119.3688         estimate D2E/DX2                !
 ! A66   A(26,34,40)           120.3382         estimate D2E/DX2                !
 ! A67   A(32,34,40)           120.2479         estimate D2E/DX2                !
 ! A68   A(27,35,36)           127.8916         estimate D2E/DX2                !
 ! A69   A(27,35,38)           111.9223         estimate D2E/DX2                !
 ! A70   A(36,35,38)           120.1824         estimate D2E/DX2                !
 ! A71   A(6,37,26)            131.328          estimate D2E/DX2                !
 ! A72   A(6,37,38)            118.7057         estimate D2E/DX2                !
 ! A73   A(26,37,38)           109.9501         estimate D2E/DX2                !
 ! A74   A(35,38,37)            93.3477         estimate D2E/DX2                !
 ! D1    D(3,1,2,5)             -4.1257         estimate D2E/DX2                !
 ! D2    D(3,1,2,9)            175.4212         estimate D2E/DX2                !
 ! D3    D(12,1,2,5)          -167.7484         estimate D2E/DX2                !
 ! D4    D(12,1,2,9)            11.7984         estimate D2E/DX2                !
 ! D5    D(2,1,3,4)              3.0091         estimate D2E/DX2                !
 ! D6    D(2,1,3,22)          -176.3746         estimate D2E/DX2                !
 ! D7    D(12,1,3,4)           165.7327         estimate D2E/DX2                !
 ! D8    D(12,1,3,22)          -13.651          estimate D2E/DX2                !
 ! D9    D(1,2,5,4)              3.5943         estimate D2E/DX2                !
 ! D10   D(1,2,5,6)            176.4179         estimate D2E/DX2                !
 ! D11   D(9,2,5,4)           -175.8781         estimate D2E/DX2                !
 ! D12   D(9,2,5,6)             -3.0545         estimate D2E/DX2                !
 ! D13   D(1,3,4,5)             -0.4983         estimate D2E/DX2                !
 ! D14   D(1,3,4,7)           -176.8658         estimate D2E/DX2                !
 ! D15   D(22,3,4,5)           178.8075         estimate D2E/DX2                !
 ! D16   D(22,3,4,7)             2.4401         estimate D2E/DX2                !
 ! D17   D(1,3,22,14)          -17.5229         estimate D2E/DX2                !
 ! D18   D(1,3,22,25)          160.0001         estimate D2E/DX2                !
 ! D19   D(4,3,22,14)          163.2677         estimate D2E/DX2                !
 ! D20   D(4,3,22,25)          -19.2093         estimate D2E/DX2                !
 ! D21   D(3,4,5,2)             -2.0278         estimate D2E/DX2                !
 ! D22   D(3,4,5,6)           -177.4862         estimate D2E/DX2                !
 ! D23   D(7,4,5,2)            175.5719         estimate D2E/DX2                !
 ! D24   D(7,4,5,6)              0.1135         estimate D2E/DX2                !
 ! D25   D(3,4,7,8)            175.3786         estimate D2E/DX2                !
 ! D26   D(3,4,7,10)            -4.236          estimate D2E/DX2                !
 ! D27   D(5,4,7,8)             -1.0022         estimate D2E/DX2                !
 ! D28   D(5,4,7,10)           179.3832         estimate D2E/DX2                !
 ! D29   D(2,5,6,8)           -171.9374         estimate D2E/DX2                !
 ! D30   D(2,5,6,37)             5.6528         estimate D2E/DX2                !
 ! D31   D(4,5,6,8)              0.8531         estimate D2E/DX2                !
 ! D32   D(4,5,6,37)           178.4433         estimate D2E/DX2                !
 ! D33   D(5,6,8,7)             -1.5922         estimate D2E/DX2                !
 ! D34   D(5,6,8,11)          -169.9548         estimate D2E/DX2                !
 ! D35   D(37,6,8,7)          -179.5794         estimate D2E/DX2                !
 ! D36   D(37,6,8,11)           12.058          estimate D2E/DX2                !
 ! D37   D(5,6,37,26)          164.2999         estimate D2E/DX2                !
 ! D38   D(5,6,37,38)          -17.3243         estimate D2E/DX2                !
 ! D39   D(8,6,37,26)          -18.3759         estimate D2E/DX2                !
 ! D40   D(8,6,37,38)          160.0            estimate D2E/DX2                !
 ! D41   D(4,7,8,6)              1.6076         estimate D2E/DX2                !
 ! D42   D(4,7,8,11)           170.499          estimate D2E/DX2                !
 ! D43   D(10,7,8,6)          -178.7306         estimate D2E/DX2                !
 ! D44   D(10,7,8,11)           -9.8393         estimate D2E/DX2                !
 ! D45   D(20,13,14,15)          2.6522         estimate D2E/DX2                !
 ! D46   D(20,13,14,22)       -179.825          estimate D2E/DX2                !
 ! D47   D(23,13,14,15)       -176.6344         estimate D2E/DX2                !
 ! D48   D(23,13,14,22)          0.8884         estimate D2E/DX2                !
 ! D49   D(14,13,20,18)         -0.9366         estimate D2E/DX2                !
 ! D50   D(14,13,20,21)        179.5096         estimate D2E/DX2                !
 ! D51   D(23,13,20,18)        178.2304         estimate D2E/DX2                !
 ! D52   D(23,13,20,21)         -1.3235         estimate D2E/DX2                !
 ! D53   D(14,13,23,24)        179.4225         estimate D2E/DX2                !
 ! D54   D(14,13,23,25)          0.3728         estimate D2E/DX2                !
 ! D55   D(20,13,23,24)          0.1988         estimate D2E/DX2                !
 ! D56   D(20,13,23,25)       -178.8509         estimate D2E/DX2                !
 ! D57   D(13,14,15,16)         -2.3659         estimate D2E/DX2                !
 ! D58   D(13,14,15,39)        174.7344         estimate D2E/DX2                !
 ! D59   D(22,14,15,16)       -179.3783         estimate D2E/DX2                !
 ! D60   D(22,14,15,39)         -2.2779         estimate D2E/DX2                !
 ! D61   D(13,14,22,3)         176.007          estimate D2E/DX2                !
 ! D62   D(13,14,22,25)         -1.7079         estimate D2E/DX2                !
 ! D63   D(15,14,22,3)          -6.8323         estimate D2E/DX2                !
 ! D64   D(15,14,22,25)        175.4528         estimate D2E/DX2                !
 ! D65   D(14,15,16,17)        179.448          estimate D2E/DX2                !
 ! D66   D(14,15,16,18)          0.4075         estimate D2E/DX2                !
 ! D67   D(39,15,16,17)          2.2988         estimate D2E/DX2                !
 ! D68   D(39,15,16,18)       -176.7418         estimate D2E/DX2                !
 ! D69   D(15,16,18,19)       -179.7347         estimate D2E/DX2                !
 ! D70   D(15,16,18,20)          1.3904         estimate D2E/DX2                !
 ! D71   D(17,16,18,19)          1.2224         estimate D2E/DX2                !
 ! D72   D(17,16,18,20)       -177.6525         estimate D2E/DX2                !
 ! D73   D(16,18,20,13)         -1.0854         estimate D2E/DX2                !
 ! D74   D(16,18,20,21)        178.4613         estimate D2E/DX2                !
 ! D75   D(19,18,20,13)       -179.9505         estimate D2E/DX2                !
 ! D76   D(19,18,20,21)         -0.4038         estimate D2E/DX2                !
 ! D77   D(3,22,25,23)        -176.3186         estimate D2E/DX2                !
 ! D78   D(14,22,25,23)          1.6472         estimate D2E/DX2                !
 ! D79   D(13,23,25,22)         -1.1667         estimate D2E/DX2                !
 ! D80   D(24,23,25,22)        179.7052         estimate D2E/DX2                !
 ! D81   D(34,26,27,28)         -1.5833         estimate D2E/DX2                !
 ! D82   D(34,26,27,35)        177.3643         estimate D2E/DX2                !
 ! D83   D(37,26,27,28)       -179.079          estimate D2E/DX2                !
 ! D84   D(37,26,27,35)         -0.1315         estimate D2E/DX2                !
 ! D85   D(27,26,34,32)          1.1587         estimate D2E/DX2                !
 ! D86   D(27,26,34,40)        178.7204         estimate D2E/DX2                !
 ! D87   D(37,26,34,32)        178.1773         estimate D2E/DX2                !
 ! D88   D(37,26,34,40)         -4.261          estimate D2E/DX2                !
 ! D89   D(27,26,37,6)         178.604          estimate D2E/DX2                !
 ! D90   D(27,26,37,38)          0.1195         estimate D2E/DX2                !
 ! D91   D(34,26,37,6)           1.4249         estimate D2E/DX2                !
 ! D92   D(34,26,37,38)       -177.0596         estimate D2E/DX2                !
 ! D93   D(26,27,28,29)       -179.4753         estimate D2E/DX2                !
 ! D94   D(26,27,28,30)          1.0446         estimate D2E/DX2                !
 ! D95   D(35,27,28,29)          1.7464         estimate D2E/DX2                !
 ! D96   D(35,27,28,30)       -177.7336         estimate D2E/DX2                !
 ! D97   D(26,27,35,36)        179.3721         estimate D2E/DX2                !
 ! D98   D(26,27,35,38)          0.0818         estimate D2E/DX2                !
 ! D99   D(28,27,35,36)         -1.7728         estimate D2E/DX2                !
 ! D100  D(28,27,35,38)        178.9369         estimate D2E/DX2                !
 ! D101  D(27,28,30,31)        179.7885         estimate D2E/DX2                !
 ! D102  D(27,28,30,32)         -0.0852         estimate D2E/DX2                !
 ! D103  D(29,28,30,31)          0.3173         estimate D2E/DX2                !
 ! D104  D(29,28,30,32)       -179.5563         estimate D2E/DX2                !
 ! D105  D(28,30,32,33)       -179.8311         estimate D2E/DX2                !
 ! D106  D(28,30,32,34)         -0.3427         estimate D2E/DX2                !
 ! D107  D(31,30,32,33)          0.2943         estimate D2E/DX2                !
 ! D108  D(31,30,32,34)        179.7827         estimate D2E/DX2                !
 ! D109  D(30,32,34,26)         -0.2175         estimate D2E/DX2                !
 ! D110  D(30,32,34,40)       -177.7815         estimate D2E/DX2                !
 ! D111  D(33,32,34,26)        179.2697         estimate D2E/DX2                !
 ! D112  D(33,32,34,40)          1.7058         estimate D2E/DX2                !
 ! D113  D(27,35,38,37)         -0.0109         estimate D2E/DX2                !
 ! D114  D(36,35,38,37)       -179.363          estimate D2E/DX2                !
 ! D115  D(6,37,38,35)        -178.7662         estimate D2E/DX2                !
 ! D116  D(26,37,38,35)         -0.0637         estimate D2E/DX2                !
 --------------------------------------------------------------------------------
 Trust Radius=3.00D-01 FncErr=1.00D-07 GrdErr=1.00D-06
 Number of steps in this run=    240 maximum allowed number of steps=    240.
 GradGradGradGradGradGradGradGradGradGradGradGradGradGradGradGradGradGrad

                          Input orientation:                          
 ---------------------------------------------------------------------
 Center     Atomic      Atomic             Coordinates (Angstroms)
 Number     Number       Type             X           Y           Z
 ---------------------------------------------------------------------
      1          7           0        1.456544   -0.556741   -0.053657
      2          6           0        0.817714   -0.464352    1.212818
      3          6           0        2.452900    0.403430   -0.236541
      4          6           0        2.529506    1.110139    0.958038
      5          6           0        1.566139    0.593036    1.885560
      6          6           0        1.619267    1.350590    3.054123
      7          6           0        3.216952    2.234915    1.567954
      8          7           0        2.590527    2.333094    2.836653
      9          8           0       -0.136931   -1.165129    1.531401
     10          8           0        4.111178    2.983260    1.184582
     11          1           0        2.960962    2.946014    3.549537
     12          1           0        1.026170   -1.085550   -0.797387
     13          6           0        4.046105    0.196073   -3.648435
     14          6           0        3.301826   -0.371451   -2.543618
     15          6           0        2.865053   -1.726250   -2.649511
     16          6           0        3.113215   -2.438012   -3.801002
     17          1           0        2.785111   -3.470996   -3.869013
     18          6           0        3.810184   -1.857672   -4.902723
     19          1           0        3.982099   -2.451515   -5.795182
     20          6           0        4.279865   -0.570599   -4.829494
     21          1           0        4.832934   -0.128486   -5.653004
     22          6           0        3.171562    0.540442   -1.467838
     23          6           0        4.472607    1.494114   -3.382123
     24          1           0        5.051078    2.141424   -4.027824
     25         16           0        4.004201    2.031025   -1.833794
     26          6           0        1.157257    1.907411    5.544249
     27          6           0        0.110694    1.635488    6.510420
     28          6           0        0.201983    2.166608    7.834329
     29          1           0       -0.582307    1.950642    8.553758
     30          6           0        1.276401    2.949843    8.167715
     31          1           0        1.357675    3.363221    9.168623
     32          6           0        2.298213    3.235378    7.210008
     33          1           0        3.138126    3.856827    7.505613
     34          6           0        2.250190    2.736075    5.930462
     35          6           0       -0.917134    0.864536    5.981247
     36          1           0       -1.808548    0.511878    6.482123
     37          6           0        0.888876    1.321620    4.288873
     38         16           0       -0.636616    0.464647    4.343504
     39          1           0        2.379639   -2.220918   -1.816474
     40          1           0        3.054170    2.938009    5.236577
 ---------------------------------------------------------------------
                    Distance matrix (angstroms):
                    1          2          3          4          5
     1  N    0.000000
     2  C    1.421478   0.000000
     3  C    1.395744   2.351068   0.000000
     4  C    2.225593   2.339694   1.390081   0.000000
     5  C    2.257113   1.459723   2.307728   1.433795   0.000000
     6  C    3.650026   2.706826   3.524277   2.297809   1.393646
     7  C    3.677227   3.628844   2.682222   1.452481   2.349856
     8  N    4.241575   3.688551   3.631400   2.242440   2.231984
     9  O    2.328456   1.226348   3.506169   3.551827   2.473261
    10  O    4.594771   4.767990   3.380089   2.462030   3.561147
    11  H    5.245529   4.656647   4.588818   3.205068   3.201696
    12  H    1.008957   2.114300   2.137093   3.187881   3.210517
    13  C    4.493883   5.872857   3.771249   4.935097   6.077245
    14  C    3.104723   4.504470   2.577542   3.879843   4.853912
    15  C    3.176493   4.549898   3.244662   4.601315   5.256723
    16  C    4.508474   5.856881   4.605995   5.964776   6.627042
    17  H    4.981457   6.223790   5.321315   6.659771   7.149640
    18  C    5.544861   6.949537   5.359856   6.693023   7.557942
    19  H    6.552382   7.941928   6.433323   7.771833   8.608133
    20  C    5.547968   6.964719   5.038030   6.275680   7.335551
    21  H    6.552564   7.960798   5.940166   7.109560   8.247575
    22  C    2.478912   3.706228   1.432250   2.573260   3.718256
    23  C    4.937745   6.189290   3.894033   4.770752   6.083419
    24  H    5.999564   7.223280   4.913754   5.681610   7.036364
    25  S    4.044252   5.065812   2.758046   3.288933   4.673923
    26  C    6.123575   4.949934   6.112135   4.853045   3.909063
    27  C    7.050126   5.742281   7.247439   6.079111   4.959269
    28  C    8.438654   7.151607   8.562381   7.335999   6.302770
    29  H    9.194100   7.853767   9.427391   8.251351   7.136090
    30  C    8.939773   7.761296   8.860016   7.545477   6.715948
    31  H   10.021294   8.845151   9.920534   8.594374   7.794895
    32  C    8.237075   7.200428   7.968372   6.607364   5.988960
    33  H    8.913465   7.978482   8.505083   7.126391   6.686439
    34  C    6.876205   5.878000   6.596533   5.238958   4.628366
    35  C    6.638859   5.245337   7.087357   6.096907   4.797396
    36  H    7.383712   5.967902   7.956893   7.049266   5.702937
    37  C    4.765297   3.557650   4.875307   3.718985   2.601045
    38  S    4.975899   3.574816   5.525004   4.679996   3.303044
    39  H    2.594053   3.834285   3.064108   4.337778   4.720718
    40  H    6.538522   5.724372   6.061406   4.682123   4.352293
                    6          7          8          9         10
     6  C    0.000000
     7  C    2.354427   0.000000
     8  N    1.398554   1.418325   0.000000
     9  O    3.425165   4.775999   4.623881   0.000000
    10  O    3.517160   1.227450   2.337613   5.947760   0.000000
    11  H    2.142652   2.120817   1.010493   5.529133   2.630094
    12  H    4.595723   4.628159   5.228823   2.604302   5.477289
    13  C    7.221270   5.661721   6.981542   6.795687   5.579489
    14  C    6.093532   4.868816   6.063648   5.390803   5.080218
    15  C    6.599270   5.796695   6.830200   5.177527   6.199402
    16  C    7.973589   7.118476   8.191161   6.373241   7.432508
    17  H    8.516848   7.893321   8.870811   6.558950   8.303896
    18  C    8.854629   7.679248   8.885270   7.580058   7.783348
    19  H    9.917115   8.761498   9.966822   8.502942   8.847064
    20  C    8.539389   7.065977   8.369893   7.766759   6.987666
    21  H    9.398371   7.767837   9.119322   8.797151   7.546952
    22  C    4.849133   3.476972   4.698920   4.780223   3.726335
    23  C    7.041833   5.160302   6.551281   7.243075   4.816947
    24  H    7.909281   5.889439   7.294662   8.291786   5.362954
    25  S    5.481116   3.497602   4.889048   6.220041   3.166826
    26  C    2.593113   4.490048   3.092984   5.217124   5.374923
    27  C    3.781924   5.868230   4.486957   5.717989   6.795948
    28  C    5.052223   6.954291   5.541627   7.137383   7.756795
    29  H    5.954240   7.957175   6.549690   7.695446   8.797719
    30  C    5.368798   6.916191   5.525172   7.935437   7.536658
    31  H    6.442532   7.905704   6.532605   9.003719   8.454056
    32  C    4.613542   5.803256   4.475019   7.585576   6.297314
    33  H    5.329533   6.155697   4.941742   8.463879   6.454873
    34  C    3.254375   4.496361   3.138451   6.345824   5.103700
    35  C    3.903541   6.200464   4.934452   4.952715   7.265047
    36  H    4.919811   7.236959   5.996511   5.487833   8.319545
    37  C    1.434893   3.695598   2.455125   3.852253   4.772934
    38  S    2.745251   5.068285   4.021958   3.288431   6.234079
    39  H    6.087409   5.657729   6.514222   4.319269   6.252042
    40  H    3.056461   3.738935   2.518040   6.383353   4.187837
                   11         12         13         14         15
    11  H    0.000000
    12  H    6.236399   0.000000
    13  C    7.781421   4.346382   0.000000
    14  C    6.946100   2.955989   1.447983   0.000000
    15  C    7.763211   2.687443   2.467399   1.427398   0.000000
    16  C    9.112702   3.899566   2.798565   2.426368   1.376271
    17  H    9.810394   4.268385   3.884090   3.410403   2.130191
    18  C    9.758959   5.020029   2.418009   2.834194   2.446939
    19  H   10.839733   5.965009   3.409156   3.919452   3.415999
    20  C    9.182278   5.206687   1.427351   2.494283   2.844213
    21  H    9.881477   6.243752   2.177782   3.474422   3.930188
    22  C    5.568230   2.774178   2.374535   1.416270   2.574527
    23  C    7.241615   5.021300   1.392026   2.356725   3.673104
    24  H    7.901414   6.086786   2.222228   3.402542   4.651597
    25  S    5.559299   4.433492   2.581032   2.601744   4.010008
    26  C    2.882867   7.013655   9.786704   8.672139   9.124570
    27  C    4.313738   7.851508  10.989163   9.807483  10.138644
    28  C    5.155471   9.260796  12.268421  11.124413  11.495964
    29  H    6.211904   9.962408  13.167924  11.984588  12.284830
    30  C    4.915824   9.834636  12.444915  11.395876  11.891259
    31  H    5.858218  10.918920  13.473509  12.446047  12.955431
    32  C    3.731221   9.187322  11.410446  10.447472  11.052112
    33  H    4.063435   9.890766  11.774478  10.903769  11.591888
    34  C    2.493607   7.833709  10.071355   9.086952   9.690528
    35  C    5.028458   7.316362  10.854094   9.591695   9.772773
    36  H    6.105187   7.973623  11.704909  10.409620  10.499453
    37  C    2.734742   5.628797   8.616021   7.441220   7.831728
    38  S    4.441861   5.621097   9.266666   7.977646   8.121821
    39  H    7.471894   2.039480   3.460496   2.190821   1.083639
    40  H    1.689632   7.530640   9.351235   8.458445   9.164140
                   16         17         18         19         20
    16  C    0.000000
    17  H    1.085971   0.000000
    18  C    1.427007   2.173050   0.000000
    19  H    2.175292   2.486413   1.085674   0.000000
    20  C    2.430247   3.401340   1.372049   2.135196   0.000000
    21  H    3.423632   4.306806   2.144533   2.478023   1.086056
    22  C    3.783946   4.691121   4.237596   5.323033   3.709916
    23  C    4.181509   5.266595   3.739719   4.650961   2.528848
    24  H    4.977750   6.054675   4.277620   5.036006   2.931299
    25  S    4.963472   5.991705   4.957614   5.982161   3.977267
    26  C   10.490100  10.962969  11.417229  12.472477  11.113315
    27  C   11.486251  11.872713  12.495928  13.532154  12.281793
    28  C   12.847519  13.244748  13.836417  14.878841  13.582851
    29  H   13.621940  13.966349  14.658585  15.687730  14.460595
    30  C   13.253417  13.725385  14.155162  15.213742  13.796440
    31  H   14.315984  14.789322  15.207738  16.266967  14.831096
    32  C   12.413457  12.959831  13.226619  14.293746  12.781315
    33  H   12.940833  13.535277  13.677499  14.745122  13.155247
    34  C   11.055197  11.612217  11.869877  12.938367  11.438109
    35  C   11.083453  11.381172  12.174513  13.178883  12.080585
    36  H   11.775749  12.004624  12.915094  13.894082  12.891595
    37  C    9.193943   9.649662  10.155165  11.202354   9.910798
    38  S    9.424417   9.728460  10.519501  11.516487  10.458844
    39  H    2.126879   2.437215   3.421014   4.295483   3.925901
    40  H   10.515842  11.138201  11.241687  12.312909  10.730259
                   21         22         23         24         25
    21  H    0.000000
    22  C    4.552278   0.000000
    23  C    2.814172   2.503337   0.000000
    24  H    2.800230   3.556579   1.081928   0.000000
    25  S    4.465048   1.746153   1.704406   2.433497   0.000000
    26  C   11.959681   7.422628   9.531132  10.336401   7.909229
    27  C   13.166626   8.615140  10.812431  11.649804   9.216385
    28  C   14.443730   9.899148  12.020785  12.815032  10.389796
    29  H   15.345348  10.794099  12.970190  13.786502  11.355340
    30  C   14.599223  10.111416  12.072019  12.791907  10.407464
    31  H   15.618901  11.153142  13.065894  13.757915  11.394386
    32  C   13.535046   9.128550  10.952316  11.621698   9.281768
    33  H   13.852953   9.566732  11.220786  11.816182   9.555530
    34  C   12.208725   7.772038   9.654317  10.361759   7.991078
    35  C   13.015574   8.503607  10.822124  11.723118   9.308872
    36  H   13.848490   9.381055  11.735461  12.655785  10.259159
    37  C   10.793485   6.241844   8.468593   9.336137   6.906197
    38  S   11.410432   6.948356   9.319296  10.258683   7.883510
    39  H    5.011576   2.893752   4.542382   5.572852   4.551760
    40  H   11.452090   7.121186   8.853180   9.510590   7.191337
                   26         27         28         29         30
    26  C    0.000000
    27  C    1.450076   0.000000
    28  C    2.494834   1.429391   0.000000
    29  H    3.476362   2.180551   1.085969   0.000000
    30  C    2.825496   2.415166   1.370758   2.145280   0.000000
    31  H    3.910963   3.406768   2.132568   2.477291   1.085958
    32  C    2.416615   2.798984   2.434385   3.428354   1.429277
    33  H    3.401619   3.884598   3.403797   4.309730   2.174171
    34  C    1.424902   2.474891   2.853797   3.939750   2.449339
    35  C    2.362552   1.389539   2.526208   2.812391   3.733730
    36  H    3.409270   2.224138   2.934081   2.804528   4.278061
    37  C    1.411081   2.374732   3.708920   4.555139   4.224535
    38  S    2.596409   2.573881   3.973132   4.465128   4.945748
    39  H    8.527460   9.452890  10.822688  11.563596  11.297696
    40  H    2.180613   3.461688   3.934253   5.020214   3.428144
                   31         32         33         34         35
    31  H    0.000000
    32  C    2.176495   0.000000
    33  H    2.485811   1.085834   0.000000
    34  C    3.416955   1.374353   2.127350   0.000000
    35  C    4.645164   4.179617   5.265228   3.679290   0.000000
    36  H    5.037103   4.981241   6.058532   4.660981   1.081603
    37  C    5.310355   3.765864   4.672667   2.559038   2.516888
    38  S    5.971658   4.950456   5.979506   4.001433   1.709036
    39  H   12.365249  10.547757  11.154174   9.198019   9.010727
    40  H    4.303473   2.134087   2.449449   1.081035   4.541484
                   36         37         38         39         40
    36  H    0.000000
    37  C    3.569612   0.000000
    38  S    2.439129   1.750575   0.000000
    39  H    9.688952   7.214375   7.365825   0.000000
    40  H    5.575260   2.863452   4.531776   8.764420   0.000000
 Symmetry turned off by external request.
 Stoichiometry    C22H12N2O2S2
 Framework group  C1[X(C22H12N2O2S2)]
 Deg. of freedom   114
 Full point group                 C1      NOp   1
 Rotational constants (GHZ):      0.4547000      0.0723017      0.0634813
 Standard basis: 6-31+G(d,p) (6D, 7F)
 Integral buffers will be    262144 words long.
 Raffenetti 2 integral format.
 Two-electron integral symmetry is turned off.
   600 basis functions,  1028 primitive gaussians,   600 cartesian basis functions
   103 alpha electrons      103 beta electrons
       nuclear repulsion energy      2626.1458289347 Hartrees.
 NAtoms=   40 NActive=   40 NUniq=   40 SFac= 1.00D+00 NAtFMM=   50 NAOKFM=F Big=F
 One-electron integrals computed using PRISM.
 NBasis=   600 RedAO= T  NBF=   600
 NBsUse=   592 1.00D-06 NBFU=   592
 Harris functional with IExCor=  402 diagonalized for initial guess.
 ExpMin= 4.05D-02 ExpMax= 2.19D+04 ExpMxC= 3.30D+03 IAcc=2 IRadAn=         0 AccDes= 0.00D+00
 HarFok:  IExCor=  402 AccDes= 0.00D+00 IRadAn=         0 IDoV= 1
 ScaDFX=  1.000000  1.000000  1.000000  1.000000
 FoFCou: FMM=F IPFlag=           0 FMFlag=      100000 FMFlg1=           0
         NFxFlg=           0 DoJE=T BraDBF=F KetDBF=T FulRan=T
         Omega=  0.000000  0.000000  1.000000  0.000000  0.000000 ICntrl=     500 IOpCl=  0
         NMat0=    1 NMatS0=    1 NMatT0=    0 NMatD0=    1 NMtDS0=    0 NMtDT0=    0
         I1Cent=           4 NGrid=           0.
 Symmetry not used in FoFCou.
 Requested convergence on RMS density matrix=1.00D-08 within 128 cycles.
 Requested convergence on MAX density matrix=1.00D-06.
 Requested convergence on             energy=1.00D-06.
 No special actions if energy rises.
 Restarting incremental Fock formation.
 SCF Done:  E(RB3LYP) =  -1901.95102977     A.U. after   27 cycles
             Convg  =    0.8232D-08             -V/T =  2.0069

 **********************************************************************

            Population analysis using the SCF density.

 **********************************************************************

 Alpha  occ. eigenvalues --  -88.94154 -88.94067 -19.13447 -19.13264 -14.38865
 Alpha  occ. eigenvalues --  -14.38796 -10.30441 -10.30169 -10.27570 -10.27418
 Alpha  occ. eigenvalues --  -10.24979 -10.24888 -10.24055 -10.23988 -10.23057
 Alpha  occ. eigenvalues --  -10.22949 -10.22541 -10.22392 -10.22007 -10.21771
 Alpha  occ. eigenvalues --  -10.21687 -10.21652 -10.21632 -10.21472 -10.21342
 Alpha  occ. eigenvalues --  -10.21199 -10.20104 -10.19802  -7.99937  -7.99861
 Alpha  occ. eigenvalues --   -5.96339  -5.96263  -5.95938  -5.95863  -5.95735
 Alpha  occ. eigenvalues --   -5.95658  -1.04995  -1.04442  -0.97937  -0.96675
 Alpha  occ. eigenvalues --   -0.91496  -0.91407  -0.85298  -0.85197  -0.81397
 Alpha  occ. eigenvalues --   -0.80050  -0.79710  -0.76686  -0.75688  -0.75475
 Alpha  occ. eigenvalues --   -0.74917  -0.70485  -0.68237  -0.68041  -0.63978
 Alpha  occ. eigenvalues --   -0.63811  -0.61760  -0.60355  -0.60112  -0.59158
 Alpha  occ. eigenvalues --   -0.56743  -0.55129  -0.54474  -0.53925  -0.50732
 Alpha  occ. eigenvalues --   -0.50436  -0.48924  -0.48292  -0.48142  -0.47315
 Alpha  occ. eigenvalues --   -0.46659  -0.45759  -0.45508  -0.44849  -0.44510
 Alpha  occ. eigenvalues --   -0.43644  -0.43338  -0.43222  -0.42743  -0.42424
 Alpha  occ. eigenvalues --   -0.42064  -0.41771  -0.40037  -0.38272  -0.38030
 Alpha  occ. eigenvalues --   -0.37050  -0.36877  -0.36538  -0.35948  -0.35732
 Alpha  occ. eigenvalues --   -0.35609  -0.34435  -0.34089  -0.30218  -0.29976
 Alpha  occ. eigenvalues --   -0.27960  -0.27162  -0.26689  -0.26596  -0.26193
 Alpha  occ. eigenvalues --   -0.24312  -0.23240  -0.18886
 Alpha virt. eigenvalues --   -0.11081  -0.08137  -0.05646  -0.02268  -0.00550
 Alpha virt. eigenvalues --   -0.00425  -0.00348  -0.00238   0.00111   0.00264
 Alpha virt. eigenvalues --    0.00873   0.01069   0.01088   0.01287   0.01719
 Alpha virt. eigenvalues --    0.02488   0.02959   0.03316   0.03801   0.04140
 Alpha virt. eigenvalues --    0.04200   0.04651   0.04935   0.05486   0.05778
 Alpha virt. eigenvalues --    0.05917   0.06120   0.06239   0.06810   0.07391
 Alpha virt. eigenvalues --    0.07578   0.08006   0.08444   0.08612   0.08867
 Alpha virt. eigenvalues --    0.09249   0.09566   0.09851   0.10176   0.10554
 Alpha virt. eigenvalues --    0.10926   0.11178   0.11381   0.11554   0.11740
 Alpha virt. eigenvalues --    0.11902   0.12590   0.12900   0.13105   0.13307
 Alpha virt. eigenvalues --    0.13682   0.13949   0.14129   0.14541   0.14814
 Alpha virt. eigenvalues --    0.14893   0.15201   0.15637   0.15979   0.16056
 Alpha virt. eigenvalues --    0.16099   0.16465   0.16720   0.17229   0.17317
 Alpha virt. eigenvalues --    0.17415   0.17447   0.17877   0.18277   0.18480
 Alpha virt. eigenvalues --    0.18597   0.18881   0.19044   0.19284   0.19573
 Alpha virt. eigenvalues --    0.19865   0.20056   0.20208   0.20690   0.20863
 Alpha virt. eigenvalues --    0.21064   0.21251   0.21465   0.21783   0.22047
 Alpha virt. eigenvalues --    0.22271   0.22466   0.22751   0.23152   0.23379
 Alpha virt. eigenvalues --    0.23679   0.23826   0.24198   0.24465   0.24649
 Alpha virt. eigenvalues --    0.24810   0.25131   0.25427   0.25890   0.26107
 Alpha virt. eigenvalues --    0.26366   0.26526   0.26683   0.26971   0.27054
 Alpha virt. eigenvalues --    0.27500   0.27833   0.28180   0.28267   0.28622
 Alpha virt. eigenvalues --    0.28936   0.29205   0.29400   0.29599   0.29750
 Alpha virt. eigenvalues --    0.30055   0.30333   0.30555   0.31070   0.31298
 Alpha virt. eigenvalues --    0.31730   0.32314   0.32599   0.32806   0.33020
 Alpha virt. eigenvalues --    0.33474   0.34178   0.34283   0.34905   0.35400
 Alpha virt. eigenvalues --    0.35594   0.35865   0.36233   0.37026   0.37221
 Alpha virt. eigenvalues --    0.37821   0.38639   0.38863   0.39509   0.39680
 Alpha virt. eigenvalues --    0.40547   0.41126   0.42002   0.43161   0.43792
 Alpha virt. eigenvalues --    0.44350   0.44710   0.46145   0.46304   0.47002
 Alpha virt. eigenvalues --    0.47851   0.49787   0.50465   0.51417   0.51863
 Alpha virt. eigenvalues --    0.53114   0.53694   0.54166   0.55319   0.57096
 Alpha virt. eigenvalues --    0.59070   0.59256   0.60024   0.60372   0.60979
 Alpha virt. eigenvalues --    0.62710   0.63692   0.64158   0.64638   0.65556
 Alpha virt. eigenvalues --    0.66094   0.66521   0.66727   0.67152   0.67464
 Alpha virt. eigenvalues --    0.67986   0.68225   0.69085   0.69539   0.70668
 Alpha virt. eigenvalues --    0.70835   0.71098   0.71911   0.72152   0.72643
 Alpha virt. eigenvalues --    0.72807   0.73308   0.73497   0.73921   0.74138
 Alpha virt. eigenvalues --    0.74603   0.74763   0.75195   0.77071   0.77383
 Alpha virt. eigenvalues --    0.77714   0.78106   0.78609   0.79346   0.79900
 Alpha virt. eigenvalues --    0.80400   0.80858   0.81435   0.81925   0.82577
 Alpha virt. eigenvalues --    0.83764   0.83937   0.84965   0.85963   0.86994
 Alpha virt. eigenvalues --    0.87232   0.87514   0.87831   0.88760   0.88966
 Alpha virt. eigenvalues --    0.89795   0.90632   0.91068   0.92752   0.93251
 Alpha virt. eigenvalues --    0.93557   0.94109   0.95867   0.96583   0.96963
 Alpha virt. eigenvalues --    0.97161   0.98429   0.98855   0.99293   0.99956
 Alpha virt. eigenvalues --    1.00169   1.01115   1.01569   1.03152   1.03571
 Alpha virt. eigenvalues --    1.04992   1.06083   1.06891   1.07718   1.08110
 Alpha virt. eigenvalues --    1.09171   1.09852   1.10455   1.11321   1.12788
 Alpha virt. eigenvalues --    1.12899   1.13266   1.14070   1.14938   1.15424
 Alpha virt. eigenvalues --    1.16060   1.16214   1.16845   1.18459   1.18729
 Alpha virt. eigenvalues --    1.20067   1.20282   1.21265   1.22810   1.22869
 Alpha virt. eigenvalues --    1.23368   1.25012   1.25844   1.26769   1.27636
 Alpha virt. eigenvalues --    1.28379   1.29130   1.29579   1.29997   1.30407
 Alpha virt. eigenvalues --    1.30948   1.32522   1.33038   1.33286   1.34013
 Alpha virt. eigenvalues --    1.34997   1.35281   1.35681   1.35949   1.36661
 Alpha virt. eigenvalues --    1.37458   1.37543   1.38668   1.38772   1.39293
 Alpha virt. eigenvalues --    1.39622   1.39855   1.40186   1.40991   1.42221
 Alpha virt. eigenvalues --    1.42363   1.42888   1.43505   1.44157   1.44775
 Alpha virt. eigenvalues --    1.45603   1.46742   1.47588   1.48417   1.50570
 Alpha virt. eigenvalues --    1.51154   1.53061   1.54215   1.56046   1.59685
 Alpha virt. eigenvalues --    1.63133   1.63426   1.64421   1.66586   1.66851
 Alpha virt. eigenvalues --    1.69521   1.69879   1.73394   1.74624   1.76422
 Alpha virt. eigenvalues --    1.76672   1.78766   1.79340   1.80861   1.81389
 Alpha virt. eigenvalues --    1.82369   1.82607   1.82892   1.83529   1.83800
 Alpha virt. eigenvalues --    1.84235   1.84961   1.86475   1.87336   1.88216
 Alpha virt. eigenvalues --    1.89508   1.90070   1.90240   1.91602   1.92773
 Alpha virt. eigenvalues --    1.93068   1.93727   1.94078   1.95257   1.96115
 Alpha virt. eigenvalues --    1.97131   1.98219   1.98456   1.99002   2.00586
 Alpha virt. eigenvalues --    2.01658   2.02070   2.02953   2.03924   2.04979
 Alpha virt. eigenvalues --    2.05223   2.05800   2.07811   2.08081   2.08815
 Alpha virt. eigenvalues --    2.10441   2.12129   2.14960   2.15471   2.16179
 Alpha virt. eigenvalues --    2.16232   2.16866   2.19443   2.19988   2.20695
 Alpha virt. eigenvalues --    2.21856   2.24334   2.24639   2.26339   2.27410
 Alpha virt. eigenvalues --    2.27874   2.28414   2.29836   2.31449   2.31797
 Alpha virt. eigenvalues --    2.32626   2.33048   2.35121   2.36725   2.37076
 Alpha virt. eigenvalues --    2.37351   2.37643   2.38319   2.38916   2.39453
 Alpha virt. eigenvalues --    2.40625   2.43572   2.44768   2.45618   2.46182
 Alpha virt. eigenvalues --    2.46540   2.47334   2.49976   2.51046   2.51119
 Alpha virt. eigenvalues --    2.51512   2.51876   2.52358   2.53252   2.54926
 Alpha virt. eigenvalues --    2.55510   2.55987   2.57072   2.57785   2.58125
 Alpha virt. eigenvalues --    2.58534   2.59176   2.59911   2.61875   2.62420
 Alpha virt. eigenvalues --    2.63029   2.63759   2.64644   2.65496   2.67910
 Alpha virt. eigenvalues --    2.68541   2.72258   2.72616   2.73945   2.75657
 Alpha virt. eigenvalues --    2.76026   2.76653   2.77116   2.78446   2.81354
 Alpha virt. eigenvalues --    2.81968   2.83070   2.86253   2.87283   2.88910
 Alpha virt. eigenvalues --    2.93631   2.97463   2.98508   2.99662   3.02319
 Alpha virt. eigenvalues --    3.02840   3.04764   3.06264   3.12060   3.14620
 Alpha virt. eigenvalues --    3.15587   3.18592   3.18925   3.25928   3.26110
 Alpha virt. eigenvalues --    3.26893   3.27574   3.29445   3.29765   3.34146
 Alpha virt. eigenvalues --    3.34504   3.36303   3.44471   3.47186   3.47401
 Alpha virt. eigenvalues --    3.49648   3.49825   3.56793   3.59199   3.83219
 Alpha virt. eigenvalues --    3.83332   3.97730   3.98236   4.23204   4.26449
 Alpha virt. eigenvalues --    4.26548   4.28519   4.29190   4.30834   4.31166
 Alpha virt. eigenvalues --    4.33042   4.35852   4.37375   4.40306   4.40785
 Alpha virt. eigenvalues --    4.42905   4.43576   4.46403   4.50325   4.53057
 Alpha virt. eigenvalues --    4.53351   4.53638   4.61286   4.70543   4.78639
 Alpha virt. eigenvalues --    4.86038   4.86266   4.98286   5.08067
          Condensed to atoms (all electrons):
              1          2          3          4          5          6
     1  N    7.451413   0.398970  -0.005282   0.239118  -0.211514  -0.215798
     2  C    0.398970  10.086193   0.867400  -0.127500  -4.140111  -1.238284
     3  C   -0.005282   0.867400  10.489776   1.533380  -4.164848  -2.276486
     4  C    0.239118  -0.127500   1.533380  22.327652   0.901391  -6.443585
     5  C   -0.211514  -4.140111  -4.164848   0.901391  18.411786   1.356861
     6  C   -0.215798  -1.238284  -2.276486  -6.443585   1.356861  12.706882
     7  C   -0.087329  -0.093090  -0.744993  -5.819588  -0.420119   0.341982
     8  N   -0.005950  -0.036541  -0.057713  -0.454553   0.170703   0.007012
     9  O   -0.095019   0.215937  -0.060420  -0.077416   0.056228   0.076114
    10  O   -0.003194   0.004029   0.107036   0.127304  -0.091707  -0.042330
    11  H    0.000292   0.013394  -0.004750   0.000855   0.112233  -0.075770
    12  H    0.303123  -0.080067  -0.064755   0.036079   0.104564   0.003671
    13  C   -0.172058   0.089952   0.609110  -2.536809  -0.641903  -0.347043
    14  C   -0.122291   0.025083  -0.409637  -1.821235  -0.908356  -0.071571
    15  C    0.130558  -0.159523  -0.194260   1.251330   0.916839   0.364286
    16  C    0.077574   0.034362  -0.765165   0.224939   0.015383   0.032604
    17  H    0.000389   0.000017  -0.000767  -0.000259   0.000224   0.000007
    18  C    0.009611  -0.007593   0.025936   0.016610   0.028196   0.001631
    19  H    0.000006  -0.000005   0.000028   0.000009  -0.000029   0.000000
    20  C   -0.060223   0.052406   0.195044  -0.555301  -0.141130  -0.026729
    21  H    0.000001   0.000000   0.000549   0.000066  -0.000009   0.000000
    22  C   -0.086540   0.382477   1.282953   0.790742  -1.218752  -0.653457
    23  C   -0.016008  -0.104456  -0.230944   0.490094   0.339971   0.134915
    24  H    0.000038   0.000040  -0.005283  -0.003092  -0.000550  -0.000018
    25  S    0.030185   0.070269  -0.276609  -0.012042   0.097482   0.102975
    26  C   -0.038011  -0.247886   0.299540  -1.298202  -4.099355   0.011301
    27  C   -0.024806  -0.321352   0.116331  -0.135881  -3.211931  -0.798824
    28  C   -0.001808  -0.010835   0.009702  -0.083212  -0.577798  -0.162953
    29  H    0.000000  -0.000002   0.000000  -0.000016   0.000085   0.000556
    30  C    0.000135  -0.001139  -0.003039   0.021120   0.002487   0.008992
    31  H    0.000000   0.000002  -0.000001  -0.000029   0.000058   0.000253
    32  C    0.000876   0.030419  -0.019878  -0.339168   0.227360  -0.416436
    33  H    0.000000   0.000006   0.000015   0.000452   0.000057  -0.000884
    34  C    0.016610   0.225843  -0.166899   0.277760   2.096580   0.483296
    35  C    0.007927   0.180072  -0.005987   0.179162   0.651950   0.303178
    36  H   -0.000003   0.000407   0.000034  -0.000536  -0.004967  -0.009712
    37  C   -0.141873  -0.774196  -0.509332  -2.023817   0.618102   2.493017
    38  S    0.016972  -0.042743  -0.074387  -0.135788  -0.118313  -0.178781
    39  H   -0.011108   0.013710  -0.019050   0.001802  -0.008698  -0.000633
    40  H   -0.000053  -0.005871   0.000047  -0.030796  -0.039412   0.029750
              7          8          9         10         11         12
     1  N   -0.087329  -0.005950  -0.095019  -0.003194   0.000292   0.303123
     2  C   -0.093090  -0.036541   0.215937   0.004029   0.013394  -0.080067
     3  C   -0.744993  -0.057713  -0.060420   0.107036  -0.004750  -0.064755
     4  C   -5.819588  -0.454553  -0.077416   0.127304   0.000855   0.036079
     5  C   -0.420119   0.170703   0.056228  -0.091707   0.112233   0.104564
     6  C    0.341982   0.007012   0.076114  -0.042330  -0.075770   0.003671
     7  C   11.416071   0.469838   0.012094   0.128383   0.020151   0.004692
     8  N    0.469838   7.468327  -0.002950  -0.106025   0.271799   0.000232
     9  O    0.012094  -0.002950   8.400948  -0.000036  -0.000003   0.003245
    10  O    0.128383  -0.106025  -0.000036   8.434578   0.006380  -0.000004
    11  H    0.020151   0.271799  -0.000003   0.006380   0.429873   0.000000
    12  H    0.004692   0.000232   0.003245  -0.000004   0.000000   0.404843
    13  C    0.170063  -0.035564  -0.001672  -0.049470  -0.000049  -0.027076
    14  C    0.282068  -0.021563   0.014965  -0.024873  -0.000443  -0.090881
    15  C   -0.165951   0.026916  -0.007841   0.020864   0.000051   0.078629
    16  C    0.076890   0.004539  -0.000294  -0.000281   0.000006   0.013325
    17  H    0.000003   0.000000   0.000001   0.000000   0.000000  -0.000013
    18  C   -0.012385   0.000030   0.000252   0.000221   0.000000   0.001318
    19  H   -0.000001   0.000000   0.000000   0.000000   0.000000   0.000000
    20  C    0.080539  -0.002234  -0.000744  -0.003589  -0.000003  -0.005035
    21  H    0.000005   0.000000   0.000000   0.000000   0.000000   0.000000
    22  C   -0.509294  -0.123483  -0.005280   0.031431  -0.004115   0.002075
    23  C    0.088951   0.014821   0.000802   0.020632  -0.000037   0.004740
    24  H    0.000950  -0.000006   0.000000  -0.000017   0.000000   0.000000
    25  S   -0.187096   0.016549  -0.001661  -0.013238   0.001474  -0.002807
    26  C   -0.537330  -0.288573  -0.007483   0.026086  -0.240186  -0.000242
    27  C   -0.435977  -0.180987  -0.006486   0.003331  -0.064224   0.000034
    28  C   -0.033437  -0.048765   0.000654  -0.000388  -0.009694  -0.000001
    29  H    0.000008   0.000001   0.000000   0.000000   0.000000   0.000000
    30  C    0.009484   0.007386  -0.000028   0.000131   0.005031   0.000000
    31  H   -0.000009   0.000015   0.000000   0.000000   0.000000   0.000000
    32  C    0.276335   0.065904  -0.000382  -0.004617   0.083815  -0.000002
    33  H   -0.000163   0.000596   0.000000   0.000003  -0.000023   0.000000
    34  C    0.573888   0.274716  -0.002719  -0.022394   0.150885  -0.000061
    35  C    0.043574  -0.013860   0.009680  -0.000174   0.007473  -0.000045
    36  H   -0.000042   0.000056  -0.000005   0.000000   0.000000   0.000000
    37  C    0.226813  -0.120951   0.045513  -0.005751   0.000728   0.000282
    38  S    0.202856   0.040925  -0.034723  -0.003446  -0.001406   0.000973
    39  H    0.000915   0.000010   0.000216  -0.000004   0.000000   0.006109
    40  H    0.025865  -0.041289  -0.000003   0.000313   0.019947   0.000000
             13         14         15         16         17         18
     1  N   -0.172058  -0.122291   0.130558   0.077574   0.000389   0.009611
     2  C    0.089952   0.025083  -0.159523   0.034362   0.000017  -0.007593
     3  C    0.609110  -0.409637  -0.194260  -0.765165  -0.000767   0.025936
     4  C   -2.536809  -1.821235   1.251330   0.224939  -0.000259   0.016610
     5  C   -0.641903  -0.908356   0.916839   0.015383   0.000224   0.028196
     6  C   -0.347043  -0.071571   0.364286   0.032604   0.000007   0.001631
     7  C    0.170063   0.282068  -0.165951   0.076890   0.000003  -0.012385
     8  N   -0.035564  -0.021563   0.026916   0.004539   0.000000   0.000030
     9  O   -0.001672   0.014965  -0.007841  -0.000294   0.000001   0.000252
    10  O   -0.049470  -0.024873   0.020864  -0.000281   0.000000   0.000221
    11  H   -0.000049  -0.000443   0.000051   0.000006   0.000000   0.000000
    12  H   -0.027076  -0.090881   0.078629   0.013325  -0.000013   0.001318
    13  C   25.264188   6.788380 -10.869784  -0.606854   0.001391  -1.036923
    14  C    6.788380  23.888333 -11.421258  -0.868666   0.012244  -1.300970
    15  C  -10.869784 -11.421258  22.341612  -2.862240   0.003298   0.429690
    16  C   -0.606854  -0.868666  -2.862240   9.967291   0.297143   0.608490
    17  H    0.001391   0.012244   0.003298   0.297143   0.564806  -0.016567
    18  C   -1.036923  -1.300970   0.429690   0.608490  -0.016567   5.744315
    19  H    0.026239   0.023641   0.035006  -0.037242  -0.004860   0.278918
    20  C    2.166631  -2.540879  -2.724380  -0.723550   0.024715   1.052964
    21  H    0.070514   0.097523  -0.021107  -0.000176  -0.000157   0.011198
    22  C   -6.647995  -4.219079   6.463570   0.248985  -0.010176   0.219454
    23  C   -5.421489  -1.377748   1.836659   0.315286   0.001968   0.095574
    24  H    0.092623   0.008662  -0.017711   0.003167   0.000000  -0.006750
    25  S   -0.670226  -0.028517   0.684275   0.099282  -0.000155  -0.012814
    26  C    0.010929   0.079389  -0.014798  -0.001166   0.000000  -0.000054
    27  C    0.000909   0.014357  -0.002324  -0.000465   0.000000   0.000000
    28  C   -0.000034   0.000494  -0.000042  -0.000010   0.000000   0.000000
    29  H    0.000000   0.000000   0.000000   0.000000   0.000000   0.000000
    30  C    0.000013   0.000006  -0.000022  -0.000001   0.000000   0.000000
    31  H    0.000000   0.000000   0.000000   0.000000   0.000000   0.000000
    32  C   -0.000555  -0.001621   0.000968   0.000089   0.000000  -0.000001
    33  H    0.000000   0.000000   0.000000   0.000000   0.000000   0.000000
    34  C   -0.001259  -0.018137   0.003477   0.000912   0.000000  -0.000021
    35  C    0.000430  -0.000304  -0.000552   0.000157   0.000000  -0.000007
    36  H    0.000000   0.000000   0.000000   0.000000   0.000000   0.000000
    37  C    0.013340   0.112725  -0.008999  -0.004666   0.000001  -0.000005
    38  S    0.000500  -0.005458   0.003816   0.002220   0.000000  -0.000052
    39  H    0.032586   0.032227   0.180386   0.095710  -0.006024   0.003540
    40  H   -0.000003   0.000047   0.000002   0.000000   0.000000   0.000000
             19         20         21         22         23         24
     1  N    0.000006  -0.060223   0.000001  -0.086540  -0.016008   0.000038
     2  C   -0.000005   0.052406   0.000000   0.382477  -0.104456   0.000040
     3  C    0.000028   0.195044   0.000549   1.282953  -0.230944  -0.005283
     4  C    0.000009  -0.555301   0.000066   0.790742   0.490094  -0.003092
     5  C   -0.000029  -0.141130  -0.000009  -1.218752   0.339971  -0.000550
     6  C    0.000000  -0.026729   0.000000  -0.653457   0.134915  -0.000018
     7  C   -0.000001   0.080539   0.000005  -0.509294   0.088951   0.000950
     8  N    0.000000  -0.002234   0.000000  -0.123483   0.014821  -0.000006
     9  O    0.000000  -0.000744   0.000000  -0.005280   0.000802   0.000000
    10  O    0.000000  -0.003589   0.000000   0.031431   0.020632  -0.000017
    11  H    0.000000  -0.000003   0.000000  -0.004115  -0.000037   0.000000
    12  H    0.000000  -0.005035   0.000000   0.002075   0.004740   0.000000
    13  C    0.026239   2.166631   0.070514  -6.647995  -5.421489   0.092623
    14  C    0.023641  -2.540879   0.097523  -4.219079  -1.377748   0.008662
    15  C    0.035006  -2.724380  -0.021107   6.463570   1.836659  -0.017711
    16  C   -0.037242  -0.723550  -0.000176   0.248985   0.315286   0.003167
    17  H   -0.004860   0.024715  -0.000157  -0.010176   0.001968   0.000000
    18  C    0.278918   1.052964   0.011198   0.219454   0.095574  -0.006750
    19  H    0.565606  -0.009034  -0.005209   0.007522  -0.011533  -0.000004
    20  C   -0.009034  13.281077   0.199876  -3.878376  -0.314219  -0.035640
    21  H   -0.005209   0.199876   0.571456   0.009940  -0.073104   0.002232
    22  C    0.007522  -3.878376   0.009940  14.050704  -0.084340   0.027457
    23  C   -0.011533  -0.314219  -0.073104  -0.084340  10.085395   0.244188
    24  H   -0.000004  -0.035640   0.002232   0.027457   0.244188   0.510508
    25  S    0.000000  -0.428809   0.004546   0.350478  -0.138943   0.010425
    26  C    0.000000   0.000561   0.000000   0.158018   0.000380   0.000000
    27  C    0.000000  -0.000001   0.000000   0.049074   0.000336   0.000000
    28  C    0.000000  -0.000002   0.000000   0.001327   0.000033   0.000000
    29  H    0.000000   0.000000   0.000000   0.000000   0.000000   0.000000
    30  C    0.000000   0.000000   0.000000   0.000032  -0.000005   0.000000
    31  H    0.000000   0.000000   0.000000   0.000000   0.000000   0.000000
    32  C    0.000000  -0.000012   0.000000  -0.010745   0.000177   0.000000
    33  H    0.000000   0.000000   0.000000   0.000002   0.000000   0.000000
    34  C    0.000000  -0.000022   0.000000  -0.060970  -0.000210   0.000000
    35  C    0.000000   0.000029   0.000000  -0.004636  -0.000144   0.000000
    36  H    0.000000   0.000000   0.000000   0.000003   0.000000   0.000000
    37  C    0.000000   0.000317   0.000000   0.059849   0.009789   0.000000
    38  S    0.000000   0.000231   0.000000  -0.017257   0.000376   0.000000
    39  H   -0.000167  -0.015511   0.000017  -0.022712   0.004611   0.000002
    40  H    0.000000   0.000000   0.000000  -0.000227   0.000005   0.000000
             25         26         27         28         29         30
     1  N    0.030185  -0.038011  -0.024806  -0.001808   0.000000   0.000135
     2  C    0.070269  -0.247886  -0.321352  -0.010835  -0.000002  -0.001139
     3  C   -0.276609   0.299540   0.116331   0.009702   0.000000  -0.003039
     4  C   -0.012042  -1.298202  -0.135881  -0.083212  -0.000016   0.021120
     5  C    0.097482  -4.099355  -3.211931  -0.577798   0.000085   0.002487
     6  C    0.102975   0.011301  -0.798824  -0.162953   0.000556   0.008992
     7  C   -0.187096  -0.537330  -0.435977  -0.033437   0.000008   0.009484
     8  N    0.016549  -0.288573  -0.180987  -0.048765   0.000001   0.007386
     9  O   -0.001661  -0.007483  -0.006486   0.000654   0.000000  -0.000028
    10  O   -0.013238   0.026086   0.003331  -0.000388   0.000000   0.000131
    11  H    0.001474  -0.240186  -0.064224  -0.009694   0.000000   0.005031
    12  H   -0.002807  -0.000242   0.000034  -0.000001   0.000000   0.000000
    13  C   -0.670226   0.010929   0.000909  -0.000034   0.000000   0.000013
    14  C   -0.028517   0.079389   0.014357   0.000494   0.000000   0.000006
    15  C    0.684275  -0.014798  -0.002324  -0.000042   0.000000  -0.000022
    16  C    0.099282  -0.001166  -0.000465  -0.000010   0.000000  -0.000001
    17  H   -0.000155   0.000000   0.000000   0.000000   0.000000   0.000000
    18  C   -0.012814  -0.000054   0.000000   0.000000   0.000000   0.000000
    19  H    0.000000   0.000000   0.000000   0.000000   0.000000   0.000000
    20  C   -0.428809   0.000561  -0.000001  -0.000002   0.000000   0.000000
    21  H    0.004546   0.000000   0.000000   0.000000   0.000000   0.000000
    22  C    0.350478   0.158018   0.049074   0.001327   0.000000   0.000032
    23  C   -0.138943   0.000380   0.000336   0.000033   0.000000  -0.000005
    24  H    0.010425   0.000000   0.000000   0.000000   0.000000   0.000000
    25  S   16.023872  -0.009784  -0.001237   0.000118   0.000000   0.000018
    26  C   -0.009784  21.599777   7.196375  -1.961370   0.094725  -0.856837
    27  C   -0.001237   7.196375  20.371466   0.410873   0.078410  -0.711686
    28  C    0.000118  -1.961370   0.410873  11.431001   0.198550   1.220761
    29  H    0.000000   0.094725   0.078410   0.198550   0.570018   0.011676
    30  C    0.000018  -0.856837  -0.711686   1.220761   0.011676   5.687737
    31  H    0.000000   0.022679   0.023609  -0.006528  -0.005171   0.275000
    32  C    0.001947  -1.331393  -0.729488  -1.527500   0.001716   0.895588
    33  H   -0.000001   0.007047  -0.001086   0.020971  -0.000154  -0.015066
    34  C    0.003613  -8.546142  -6.847459  -0.228613  -0.024047  -0.248043
    35  C   -0.000430  -2.004849  -4.284731  -0.082026  -0.074709   0.037570
    36  H    0.000000   0.011553   0.097154  -0.036368   0.002169  -0.005015
    37  C   -0.002485  -2.450492  -4.585471  -2.730938   0.009186  -0.178958
    38  S   -0.000842   0.195416  -0.005494  -0.240915   0.004098  -0.016729
    39  H    0.001154  -0.000007  -0.000002   0.000000   0.000000   0.000000
    40  H    0.000251   0.207557   0.066006  -0.013448   0.000017  -0.000704
             31         32         33         34         35         36
     1  N    0.000000   0.000876   0.000000   0.016610   0.007927  -0.000003
     2  C    0.000002   0.030419   0.000006   0.225843   0.180072   0.000407
     3  C   -0.000001  -0.019878   0.000015  -0.166899  -0.005987   0.000034
     4  C   -0.000029  -0.339168   0.000452   0.277760   0.179162  -0.000536
     5  C    0.000058   0.227360   0.000057   2.096580   0.651950  -0.004967
     6  C    0.000253  -0.416436  -0.000884   0.483296   0.303178  -0.009712
     7  C   -0.000009   0.276335  -0.000163   0.573888   0.043574  -0.000042
     8  N    0.000015   0.065904   0.000596   0.274716  -0.013860   0.000056
     9  O    0.000000  -0.000382   0.000000  -0.002719   0.009680  -0.000005
    10  O    0.000000  -0.004617   0.000003  -0.022394  -0.000174   0.000000
    11  H    0.000000   0.083815  -0.000023   0.150885   0.007473   0.000000
    12  H    0.000000  -0.000002   0.000000  -0.000061  -0.000045   0.000000
    13  C    0.000000  -0.000555   0.000000  -0.001259   0.000430   0.000000
    14  C    0.000000  -0.001621   0.000000  -0.018137  -0.000304   0.000000
    15  C    0.000000   0.000968   0.000000   0.003477  -0.000552   0.000000
    16  C    0.000000   0.000089   0.000000   0.000912   0.000157   0.000000
    17  H    0.000000   0.000000   0.000000   0.000000   0.000000   0.000000
    18  C    0.000000  -0.000001   0.000000  -0.000021  -0.000007   0.000000
    19  H    0.000000   0.000000   0.000000   0.000000   0.000000   0.000000
    20  C    0.000000  -0.000012   0.000000  -0.000022   0.000029   0.000000
    21  H    0.000000   0.000000   0.000000   0.000000   0.000000   0.000000
    22  C    0.000000  -0.010745   0.000002  -0.060970  -0.004636   0.000003
    23  C    0.000000   0.000177   0.000000  -0.000210  -0.000144   0.000000
    24  H    0.000000   0.000000   0.000000   0.000000   0.000000   0.000000
    25  S    0.000000   0.001947  -0.000001   0.003613  -0.000430   0.000000
    26  C    0.022679  -1.331393   0.007047  -8.546142  -2.004849   0.011553
    27  C    0.023609  -0.729488  -0.001086  -6.847459  -4.284731   0.097154
    28  C   -0.006528  -1.527500   0.020971  -0.228613  -0.082026  -0.036368
    29  H   -0.005171   0.001716  -0.000154  -0.024047  -0.074709   0.002169
    30  C    0.275000   0.895588  -0.015066  -0.248043   0.037570  -0.005015
    31  H    0.565201  -0.033996  -0.004906   0.035511  -0.010877  -0.000003
    32  C   -0.033996  10.125808   0.294763  -2.259825   0.313244   0.002640
    33  H   -0.004906   0.294763   0.565488   0.010090   0.002069   0.000000
    34  C    0.035511  -2.259825   0.010090  16.147038   1.250782  -0.017406
    35  C   -0.010877   0.313244   0.002069   1.250782   9.458634   0.253136
    36  H   -0.000003   0.002640   0.000000  -0.017406   0.253136   0.509296
    37  C    0.007799   0.533144  -0.005664   2.994778  -0.115388   0.016918
    38  S    0.000013   0.109453  -0.000100   0.215106  -0.234347   0.011624
    39  H    0.000000   0.000000   0.000000   0.000002   0.000002   0.000000
    40  H   -0.000172   0.027695  -0.006394   0.099669  -0.002532   0.000002
             37         38         39         40
     1  N   -0.141873   0.016972  -0.011108  -0.000053
     2  C   -0.774196  -0.042743   0.013710  -0.005871
     3  C   -0.509332  -0.074387  -0.019050   0.000047
     4  C   -2.023817  -0.135788   0.001802  -0.030796
     5  C    0.618102  -0.118313  -0.008698  -0.039412
     6  C    2.493017  -0.178781  -0.000633   0.029750
     7  C    0.226813   0.202856   0.000915   0.025865
     8  N   -0.120951   0.040925   0.000010  -0.041289
     9  O    0.045513  -0.034723   0.000216  -0.000003
    10  O   -0.005751  -0.003446  -0.000004   0.000313
    11  H    0.000728  -0.001406   0.000000   0.019947
    12  H    0.000282   0.000973   0.006109   0.000000
    13  C    0.013340   0.000500   0.032586  -0.000003
    14  C    0.112725  -0.005458   0.032227   0.000047
    15  C   -0.008999   0.003816   0.180386   0.000002
    16  C   -0.004666   0.002220   0.095710   0.000000
    17  H    0.000001   0.000000  -0.006024   0.000000
    18  C   -0.000005  -0.000052   0.003540   0.000000
    19  H    0.000000   0.000000  -0.000167   0.000000
    20  C    0.000317   0.000231  -0.015511   0.000000
    21  H    0.000000   0.000000   0.000017   0.000000
    22  C    0.059849  -0.017257  -0.022712  -0.000227
    23  C    0.009789   0.000376   0.004611   0.000005
    24  H    0.000000   0.000000   0.000002   0.000000
    25  S   -0.002485  -0.000842   0.001154   0.000251
    26  C   -2.450492   0.195416  -0.000007   0.207557
    27  C   -4.585471  -0.005494  -0.000002   0.066006
    28  C   -2.730938  -0.240915   0.000000  -0.013448
    29  H    0.009186   0.004098   0.000000   0.000017
    30  C   -0.178958  -0.016729   0.000000  -0.000704
    31  H    0.007799   0.000013   0.000000  -0.000172
    32  C    0.533144   0.109453   0.000000   0.027695
    33  H   -0.005664  -0.000100   0.000000  -0.006394
    34  C    2.994778   0.215106   0.000002   0.099669
    35  C   -0.115388  -0.234347   0.000002  -0.002532
    36  H    0.016918   0.011624   0.000000   0.000002
    37  C   13.362426   0.078286  -0.000224  -0.060181
    38  S    0.078286  16.001884   0.000126  -0.000068
    39  H   -0.000224   0.000126   0.587726   0.000000
    40  H   -0.060181  -0.000068   0.000000   0.631811
 Mulliken atomic charges:
              1
     1  N   -0.384931
     2  C    0.700206
     3  C    0.523604
     4  C   -0.521041
     5  C   -0.109039
     6  C    0.500011
     7  C    0.594386
     8  N   -0.299368
     9  O   -0.531487
    10  O   -0.539184
    11  H    0.276317
    12  H    0.303054
    13  C   -0.271034
    14  C   -0.126658
    15  C   -0.301439
    16  C   -0.247576
    17  H    0.132773
    18  C   -0.133807
    19  H    0.131109
    20  C    0.411031
    21  H    0.131839
    22  C   -0.578653
    23  C    0.083478
    24  H    0.168778
    25  S    0.288783
    26  C    0.012827
    27  C   -0.078355
    28  C    0.462200
    29  H    0.132885
    30  C   -0.145898
    31  H    0.131553
    32  C   -0.316322
    33  H    0.132882
    34  C   -0.416332
    35  C    0.136528
    36  H    0.169066
    37  C   -0.863622
    38  S    0.225977
    39  H    0.123290
    40  H    0.092168
 Sum of Mulliken atomic charges =   0.00000
 Mulliken charges with hydrogens summed into heavy atoms:
              1
     1  N   -0.081877
     2  C    0.700206
     3  C    0.523604
     4  C   -0.521041
     5  C   -0.109039
     6  C    0.500011
     7  C    0.594386
     8  N   -0.023051
     9  O   -0.531487
    10  O   -0.539184
    13  C   -0.271034
    14  C   -0.126658
    15  C   -0.178150
    16  C   -0.114803
    18  C   -0.002698
    20  C    0.542871
    22  C   -0.578653
    23  C    0.252256
    25  S    0.288783
    26  C    0.012827
    27  C   -0.078355
    28  C    0.595085
    30  C   -0.014345
    32  C   -0.183440
    34  C   -0.324164
    35  C    0.305595
    37  C   -0.863622
    38  S    0.225977
 Sum of Mulliken charges with hydrogens summed into heavy atoms =   0.00000
 Electronic spatial extent (au):  <R**2>=          20885.3159
 Charge=              0.0000 electrons
 Dipole moment (field-independent basis, Debye):
    X=              0.0695    Y=              0.0956    Z=              0.1252  Tot=              0.1721
 Quadrupole moment (field-independent basis, Debye-Ang):
   XX=           -176.1718   YY=           -175.8727   ZZ=           -121.7172
   XY=             -4.2047   XZ=            -15.0544   YZ=             15.0724
 Traceless Quadrupole moment (field-independent basis, Debye-Ang):
   XX=            -18.2512   YY=            -17.9521   ZZ=             36.2034
   XY=             -4.2047   XZ=            -15.0544   YZ=             15.0724
 Octapole moment (field-independent basis, Debye-Ang**2):
  XXX=          -1141.7168  YYY=           -484.7454  ZZZ=           -510.5965  XYY=           -363.9837
  XXY=           -161.5911  XXZ=           -292.8595  XZZ=           -282.4474  YZZ=            -42.9691
  YYZ=           -258.1123  XYZ=             20.2599
 Hexadecapole moment (field-independent basis, Debye-Ang**3):
 XXXX=          -7886.4376 YYYY=          -3500.8185 ZZZZ=         -15584.0577 XXXY=           -990.0427
 XXXZ=            560.0605 YYYX=          -1029.1084 YYYZ=          -2516.6077 ZZZX=            420.2256
 ZZZY=          -1597.5887 XXYY=          -1906.4469 XXZZ=          -3736.5833 YYZZ=          -3281.3198
 XXYZ=           -900.4452 YYXZ=            333.4131 ZZXY=             -1.5963
 N-N= 2.626145828935D+03 E-N=-9.710214150633D+03  KE= 1.888826593599D+03
 Calling FoFJK, ICntrl=      2127 FMM=F ISym2X=0 I1Cent= 0 IOpClX= 0 NMat=1 NMatS=1 NMatT=0.
 -------------------------------------------------------------------
 Center     Atomic                   Forces (Hartrees/Bohr)
 Number     Number              X              Y              Z
 -------------------------------------------------------------------
      1        7           0.000793410   -0.000283170   -0.000030109
      2        6           0.001084620   -0.001389869    0.001562113
      3        6          -0.000622267   -0.000134417   -0.000500378
      4        6          -0.001781712    0.001335451    0.000138304
      5        6          -0.002773348    0.002924951   -0.003305538
      6        6           0.002925130    0.006964572    0.003578814
      7        6           0.000764433   -0.002227039    0.001223060
      8        7           0.005582983   -0.002719645    0.000696346
      9        8          -0.000390745    0.001364228    0.001957291
     10        8           0.000013652    0.000739571   -0.000235705
     11        1          -0.003393749    0.000458603   -0.006198658
     12        1           0.000107491   -0.000112716    0.000064077
     13        6           0.000025040   -0.000014571    0.000014847
     14        6           0.000004088   -0.000003654   -0.000100315
     15        6           0.000033507   -0.000015876    0.000054464
     16        6          -0.000023024   -0.000002143   -0.000014844
     17        1           0.000002761    0.000000450    0.000013324
     18        6           0.000005479   -0.000000437    0.000026655
     19        1           0.000008187   -0.000005183   -0.000007141
     20        6          -0.000026574    0.000023596   -0.000028512
     21        1           0.000002651    0.000003150   -0.000006763
     22        6          -0.000152655   -0.000174653    0.000117384
     23        6           0.000049827    0.000013105   -0.000039735
     24        1           0.000019573   -0.000005831    0.000003942
     25       16           0.000212495   -0.000052637    0.000154775
     26        6          -0.002433394    0.004518647   -0.003509104
     27        6           0.001063585    0.002165888    0.002605299
     28        6           0.000625046   -0.000605675   -0.002214663
     29        1           0.000162880   -0.000074067    0.000048439
     30        6           0.001004593    0.001101055    0.000157374
     31        1           0.000286259    0.000156681   -0.000291169
     32        6           0.002079591    0.000957824    0.001428862
     33        1          -0.000102933    0.000283101    0.000338608
[...]
 ,0.00002122,0.00001220,-0.00000054,-0.00000074,0.00000135,-0.00003884,
 0.00000284,0.00006057,-0.00002446,0.00003363,0.00006375,-0.00000058,0.
 00000267,-0.00000128,0.00002181,0.00003232,-0.00001286,-0.00354974,0.0
 0226963,-0.00214720,-0.00792507,-0.00004123,0.00869504,0.00177144,-0.0
 0204896,0.00131979,-0.00002996,0.00021716,-0.00046213,0.00010675,-0.00
 015851,-0.00000727,-0.00009689,0.00018787,-0.00005312,0.00015232,-0.00
 019218,0.00009388,-0.00000156,0.00002870,-0.00002776,-0.00050832,0.000
 34097,0.00072048,-0.09218655,-0.05947824,0.03891219,0.09607747,0.05690
 053,-0.00000497,-0.00000460,-0.00006379,0.00004253,0.00009387,0.000183
 74,-0.00000928,0.00001693,0.00005511,0.00001998,-0.00008649,-0.0000305
 5,-0.00008151,0.00001887,0.00007473,0.00151278,0.00045735,0.00056179,-
 0.00002317,0.00012398,0.00014111,0.00013311,-0.00008443,-0.00037367,-0
 .00008129,-0.00012558,-0.00010872,0.00006199,0.00005315,-0.00009106,0.
 00002152,0.00000072,-0.00004405,0.00000694,0.00000571,0.00000049,0.000
 01172,0.00003263,-0.00000368,-0.00000070,0.00002816,0.00002169,-0.0000
 0067,-0.00001399,-0.00000825,-0.00000815,-0.00000403,0.00001175,0.0000
 0031,-0.00000233,0.00000013,0.00000580,0.00000816,-0.00000645,0.000000
 85,-0.00000139,-0.00000202,-0.00000224,-0.00001181,-0.00000210,0.00000
 080,0.00000058,-0.00000127,0.00002011,-0.00000398,-0.00004277,0.000009
 12,-0.00001410,-0.00003309,0.00000096,-0.00000235,0.00000022,-0.000010
 03,-0.00001927,0.00001542,-0.00182778,-0.00220167,-0.00094050,-0.01091
 591,-0.00323429,0.01183091,-0.00024032,0.00087500,0.00079053,0.0003650
 0,0.00003447,-0.00028010,0.00045199,0.00020541,-0.00020049,0.00002165,
 -0.00004738,0.00000892,-0.00007191,0.00011057,0.00029781,0.00000883,-0
 .00000530,-0.00001525,-0.00047211,-0.00020354,0.00066776,0.12209153,0.
 03899129,-0.11783286,-0.12848366,-0.04134224,0.11873778,-0.00120658,-0
 .00134411,0.00008312,-0.00193026,0.00015030,-0.00170294,0.00133471,0.0
 0226759,0.00293265,0.00660914,-0.00185087,-0.00444559,0.00815459,0.007
 58583,0.01204674,-0.12127343,-0.03299858,0.07404487,-0.00132528,-0.005
 98414,-0.00729940,-0.02161457,-0.00719140,0.03018466,0.00102146,-0.000
 38230,0.00034479,0.00001345,0.00049556,0.00212799,0.00041639,0.0003016
 9,0.00031628,0.00005266,-0.00006203,-0.00010864,0.00008500,-0.00011236
 ,0.00006382,-0.00008631,0.00042850,0.00026769,-0.00006549,-0.00029675,
 -0.00011934,-0.00005588,0.00015276,0.00015650,-0.00000463,0.00000712,-
 0.00000311,0.00005982,0.00007911,-0.00007781,0.00000210,0.00001132,0.0
 0001514,0.00001053,-0.00006717,-0.00003861,0.00000638,-0.00001114,0.00
 001365,-0.00014611,0.00000729,-0.00161042,-0.00017768,0.00010314,0.000
 35183,-0.00003304,0.00002873,-0.00001541,0.00001887,-0.00033233,-0.000
 07256,-0.10149028,-0.03422588,-0.04158535,0.01024583,0.00393254,0.0097
 4020,-0.00470646,-0.00243468,0.00134819,0.00026307,0.00032008,0.001189
 17,0.00223957,0.00056282,-0.00270106,0.00009710,0.00017187,0.00005474,
 -0.00407481,-0.00251605,0.00457055,0.00005095,-0.00047626,-0.00100179,
 -0.00410864,-0.01005447,-0.02953585,-0.02460447,-0.01239010,0.02149290
 ,0.00116163,-0.00066602,-0.00116815,0.38312020,-0.00042962,0.00004435,
 -0.00039005,0.00312741,0.00034253,-0.00009919,0.00026114,0.00051508,-0
 .00121431,-0.00332993,0.00069780,-0.00311469,0.01027320,0.00904244,-0.
 01139728,-0.02745565,-0.06823201,0.00045894,-0.00197631,-0.00278685,-0
 .00476741,-0.01607817,0.00017396,0.02418416,-0.00105381,0.00024243,0.0
 0098991,-0.00131755,-0.00012685,0.00217233,0.00102400,-0.00004192,0.00
 084099,0.00003385,-0.00002878,-0.00008511,-0.00009768,-0.00007800,-0.0
 0003928,0.00014003,-0.00004569,-0.00016356,0.00001761,0.00007269,0.000
 03179,0.00002381,0.00000919,-0.00003803,0.00000555,-0.00000157,0.00000
 152,-0.00001184,-0.00001897,0.00000841,0.00000070,0.00000031,0.0000020
 9,0.00001651,0.00003415,-0.00000598,-0.00000531,-0.00000233,-0.0000029
 9,0.00025771,-0.00075364,0.00041693,0.00000058,0.00002060,0.00003429,-
 0.00000549,0.00000344,-0.00000730,-0.00000823,-0.00003541,-0.00001196,
 -0.03132402,-0.08686461,-0.06247915,0.01049774,0.01061012,-0.00507030,
 -0.00394989,-0.00092987,-0.00136768,0.00002027,0.00019188,0.00045590,0
 .00491889,0.00084747,-0.00334634,0.00020036,-0.00014024,0.00011275,-0.
 00457344,0.00411568,0.00743347,-0.00026430,0.00037231,-0.00043151,-0.0
 0978950,-0.00694899,-0.02091974,-0.01253193,0.00276352,0.00152218,-0.0
 0018329,-0.00048087,-0.00205704,0.13918738,0.19811953,0.00163944,0.001
 58060,0.00080009,0.00718466,0.00927437,0.00011435,0.00110617,-0.003535
 52,-0.00684059,-0.00807272,-0.00787252,0.00648881,0.01537224,-0.004116
 62,-0.04835228,0.08001576,0.00854829,-0.22082622,0.00094860,0.00228880
 ,0.00587061,0.01918212,0.00815731,-0.00387731,-0.00527133,-0.00368412,
 0.00357065,-0.00228512,-0.00206873,0.00087931,-0.00137453,-0.00012506,
 -0.00083353,0.00007865,0.00000329,0.00001740,0.00008088,0.00054031,-0.
 00004212,0.00001920,-0.00053796,-0.00064190,0.00013461,0.00057311,0.00
 013235,0.00002088,-0.00042727,-0.00022142,0.00000528,-0.00002932,-0.00
 000617,-0.00009142,-0.00006658,0.00013305,0.00000287,-0.00003239,-0.00
 004243,-0.00001669,0.00003226,0.00004710,0.00001305,0.00001354,-0.0000
 3070,-0.00129811,0.00001400,0.00216036,0.00064894,-0.00033341,-0.00124
 895,0.00007580,-0.00008772,0.00004652,-0.00024343,0.00057309,0.0003507
 3,-0.03011605,-0.05199124,-0.23755385,0.03650870,0.00949448,-0.0359482
 1,-0.00371557,-0.00391715,-0.00871999,-0.00038677,-0.00047287,-0.00074
 458,0.01596669,0.00555080,-0.00750926,0.00013373,0.00011696,-0.0000329
 4,-0.00491065,0.00249295,0.02716352,-0.00022461,0.00018093,0.00051219,
 -0.02897194,-0.02227015,-0.02819616,0.01844855,-0.00017554,-0.03167311
 ,-0.00174041,-0.00261265,-0.00542561,-0.08845036,0.07152607,0.63588156
 ,0.00011004,-0.00027429,0.00045242,0.00315695,0.00384629,0.00097199,0.
 00035586,-0.00033068,-0.00108704,-0.00162455,-0.00127534,0.00082126,-0
 .00008478,-0.00160366,-0.00573976,-0.02202345,-0.00608964,0.01525572,0
 .00062522,0.00014445,0.00086779,0.00398660,0.00135146,-0.00004270,-0.0
 0367262,-0.00037621,0.00174224,-0.00033943,-0.00012290,0.00007566,-0.0
 0031669,0.00005077,-0.00053261,0.00008347,0.00002974,-0.00002430,0.000
 10610,0.00038396,-0.00002577,0.00000829,0.00005630,-0.00001151,0.00004
 226,0.00002808,-0.00004034,-0.00006482,-0.00013896,0.00004609,0.000004
 43,-0.00002212,0.00000265,0.00002099,0.00005834,-0.00001021,0.00000694
 ,-0.00001982,-0.00002645,-0.00003043,-0.00008757,-0.00000975,0.0000073
 1,0.00001010,-0.00002018,-0.00019127,-0.00008153,0.00033924,0.00027759
 ,-0.00018282,-0.00056635,0.00004220,-0.00004741,0.00002294,-0.00023794
 ,0.00004956,0.00017273,-0.03205843,-0.02642675,-0.03042122,-0.00672045
 ,-0.01061583,-0.01054306,0.00062648,-0.00257373,0.00277441,0.00008243,
 0.00021860,0.00003234,-0.00445082,-0.00133458,0.00318194,-0.00041753,0
 .00024498,-0.00030297,-0.00047910,-0.00181827,-0.00594327,-0.00007568,
 0.00028265,-0.00041805,0.00783949,0.00129612,0.00275939,-0.04747415,0.
 00133754,0.03863317,0.00118983,0.00713985,0.01881981,-0.12907584,-0.05
 698293,-0.02023935,0.23127450,-0.00071188,0.00039724,0.00104729,0.0060
 2549,0.00563542,-0.00193992,0.00033999,-0.00034314,-0.00090668,-0.0009
 7032,-0.00181573,0.00109109,0.00029887,-0.00275277,-0.00685272,-0.0074
 4980,-0.00200409,0.01499493,0.00009798,0.00119229,0.00026197,0.0009492
 7,0.00187635,-0.00057160,-0.00389561,-0.00191003,0.00304030,-0.0004744
 4,-0.00055327,0.00029853,0.00000664,0.00007001,-0.00046054,0.00004873,
 0.00003031,-0.00006158,0.00010178,0.00042694,-0.00002733,-0.00001010,0
 .00011070,0.00010068,0.00004498,0.00001737,-0.00006565,-0.00008042,-0.
 00013388,0.00007290,0.00000242,-0.00001682,-0.00000132,0.00003281,0.00
 006625,-0.00001900,0.00000250,-0.00001375,-0.00001676,-0.00002773,-0.0
 0009536,-0.00001539,0.00000351,0.00000696,-0.00001447,-0.00006665,-0.0
 0004692,0.00009831,0.00025051,-0.00022183,-0.00055499,0.00001999,-0.00
 003025,0.00002324,-0.00019948,-0.00003582,0.00015791,-0.02153206,-0.00
 922874,-0.01981088,-0.01622430,-0.00371816,-0.01909702,-0.00215886,0.0
 0576132,0.00296364,0.00026929,-0.00015748,0.00001317,-0.00449696,-0.00
 141292,0.00149927,0.00013861,-0.00084869,0.00005352,0.00054648,-0.0003
 5093,-0.00442128,0.00033513,-0.00082078,-0.00008241,0.00211269,0.00605
 995,-0.00053903,-0.00494125,-0.03621871,-0.02332083,0.00167113,-0.0000
 2187,0.00857286,-0.04384403,-0.05930408,-0.01780026,0.09393102,0.10070
 331,-0.00016222,-0.00023522,0.00056172,0.00139552,-0.00115313,-0.00231
 319,0.00014019,-0.00037001,-0.00075567,-0.00094796,-0.00033122,0.00073
 970,0.00010508,0.00055871,-0.00116874,0.02133204,0.01534301,0.00588792
 ,0.00081547,0.00174702,0.00253219,0.00247983,-0.00148998,-0.00505429,-
 0.00003747,-0.00021193,-0.00225770,0.00003836,-0.00022281,-0.00098819,
 -0.00016089,-0.00001182,-0.00023645,-0.00001479,-0.00007111,0.00000551
 ,-0.00013684,-0.00038361,0.00000388,0.00001570,-0.00039270,-0.00031703
 ,-0.00000324,0.00023257,0.00012843,0.00011008,0.00001875,-0.00019223,0
 .00000212,0.00001803,-0.00000209,-0.00007909,-0.00013147,0.00007937,-0
 .00000775,0.00001264,0.00002005,0.00003348,0.00015641,0.00004531,-0.00
 000584,-0.00000686,0.00001518,-0.00034097,0.00009797,0.00057121,-0.000
 15413,0.00013742,0.00034477,-0.00000845,0.00002240,-0.00000847,0.00021
 818,0.00024491,-0.00010082,-0.01040211,-0.01129079,-0.01904025,-0.0329
 5160,-0.03248691,-0.05165828,0.00339847,0.00304822,0.01368368,0.000302
 40,0.00017054,-0.00029470,-0.01027327,-0.00473047,-0.00028623,-0.00049
 172,0.00005434,-0.00004095,0.00491763,0.00037635,-0.00787929,-0.000119
 91,-0.00005518,-0.00036109,0.00453447,0.00092886,0.00090226,0.01088641
 ,-0.03536925,-0.20075575,-0.00191846,-0.00254172,-0.00782108,0.0183463
 5,0.00603122,-0.04494620,-0.01103578,0.06215649,0.32072978,-0.00128506
 ,0.00097985,0.00081506,-0.00001062,0.00013902,0.00024882,0.00031958,-0
 .00006648,-0.00050051,0.00001139,-0.00007859,0.00015283,0.00003863,-0.
 00008125,-0.00015107,0.00004887,0.00007021,0.00010008,-0.00000563,-0.0
 0002372,0.00003063,-0.00004318,-0.00004364,0.00001273,-0.00002662,-0.0
 0004267,-0.00010166,-0.00001630,-0.00000993,-0.00004419,0.00000117,-0.
 00000150,0.00000593,-0.00075749,0.00207786,0.00148566,0.00408259,-0.00
 224559,0.00085530,-0.00087669,-0.00293318,0.00594064,-0.10269544,-0.05
 901888,0.11201382,0.00016096,-0.00427199,0.00619813,-0.00389049,0.0013
 3679,-0.00245162,0.00684619,-0.00011563,0.00399653,-0.00004808,-0.0002
 5877,0.00032233,-0.00035237,0.00027104,-0.00051294,-0.00108995,0.00033
 147,-0.00053546,-0.00193262,0.00118467,-0.00034355,-0.00012393,-0.0000
 1171,0.00040234,0.00016982,-0.00017662,0.00007050,-0.00028659,-0.00015
 466,-0.00007159,0.00001049,0.00001789,0.00002300,0.00001819,0.00001299
 ,0.00000220,-0.00000975,-0.00000204,-0.00000276,0.00000131,-0.00000101
 ,-0.00000085,0.00000800,0.00000028,-0.00000520,0.00000009,-0.00000151,
 -0.00000159,-0.00001194,0.00000570,0.00001084,-0.00000101,-0.00000224,
 -0.00000084,-0.00000038,-0.00000853,-0.00001279,0.00000080,-0.00000522
 ,-0.00001962,-0.00000070,0.00000050,-0.00000083,0.00002064,-0.00000218
 ,-0.00004791,-0.00001279,-0.00001241,0.00000962,0.10173836,-0.00040278
 ,0.00110665,0.00046870,0.00091947,0.00022481,-0.00174736,-0.00133544,-
 0.00209926,0.00060353,0.00015627,0.00040369,0.00019533,0.00016220,0.00
 035870,0.00035589,0.00008164,-0.00007562,-0.00023758,-0.00018531,-0.00
 021357,0.00008303,0.00015249,0.00018286,0.00012766,-0.00039283,-0.0002
 4175,0.00034113,0.00009826,0.00011690,-0.00006851,-0.00001375,0.000006
 67,-0.00001660,0.00254354,-0.00115433,-0.00091676,-0.00088261,-0.00393
 912,-0.00232563,-0.01429162,-0.00610680,0.02455473,-0.06063384,-0.1058
 8558,0.09036481,0.00964268,0.01103583,-0.01581785,0.00104354,0.0006729
 7,0.00068665,-0.00045762,-0.00124426,-0.00365255,0.00049372,0.00035327
 ,-0.00077800,0.00014280,-0.00098255,-0.00050518,0.00021479,0.00006946,
 0.00024871,0.00111835,0.00131464,-0.00012635,-0.00089754,-0.00055205,0
 .00110365,-0.00014057,-0.00044373,-0.00016203,-0.00027379,-0.00026796,
 0.00036927,-0.00001621,-0.00000453,-0.00001263,-0.00000637,-0.00000619
 ,0.00001524,0.00000516,0.00000092,-0.00000567,-0.00000215,-0.00000003,
 0.00000209,0.00000107,0.00000099,0.00000391,0.00000049,0.00000138,0.00
 000368,0.00000217,0.00000164,-0.00000326,0.00000203,0.00000176,0.00000
 122,0.00000988,-0.00000077,0.00001015,-0.00000119,0.00000448,-0.000002
 88,0.00000065,0.00000153,0.00000306,-0.00001769,0.00000607,0.00002976,
 0.00001964,-0.00000802,-0.00002420,0.06314441,0.10736198,0.00181634,-0
 .00054088,-0.00160367,0.00004453,-0.00056391,-0.00009954,-0.00006300,-
 0.00011435,0.00009980,-0.00002454,0.00005847,0.00006396,0.00002635,0.0
 0005408,-0.00013468,-0.00001835,-0.00002106,-0.00001125,-0.00003435,-0
 .00008462,-0.00009541,-0.00003499,-0.00003321,0.00002510,-0.00005825,0
 .00004414,-0.00001277,0.00002890,0.00003838,0.00001900,-0.00000457,-0.
 00001120,-0.00000237,0.00062601,-0.00113615,0.00022950,0.00075051,-0.0
 0125607,0.00190072,-0.00118454,-0.00139782,0.00428712,0.11413304,0.089
 95214,-0.22807729,0.01224307,0.01166524,-0.01507014,-0.00234685,0.0004
 7297,-0.00014490,0.00308619,-0.00463367,-0.00024878,0.00066794,0.00051
 386,-0.00071048,-0.00046080,-0.00032300,0.00007666,-0.00048020,0.00024
 207,-0.00028299,-0.00074038,0.00023662,-0.00033098,-0.00010558,-0.0002
 0488,0.00004674,0.00009920,-0.00008879,0.00008538,-0.00004958,0.000294
 15,0.00000124,-0.00001476,-0.00000792,-0.00002618,-0.00002891,-0.00001
 907,-0.00001031,0.00000809,0.00000760,0.00000753,-0.00000150,-0.000000
 01,0.00000122,-0.00001148,-0.00000679,0.00000244,0.00000007,0.00000062
 ,0.00000220,0.00000971,0.00000489,-0.00001395,0.00000122,-0.00000013,-
 0.00000018,0.00000774,0.00000086,0.00001159,-0.00000660,0.00000729,0.0
 0004410,0.00000284,-0.00000058,0.00000198,-0.00000612,0.00000151,0.000
 03021,0.00001931,0.00001440,-0.00000887,-0.12789454,-0.09316439,0.2399
 4957,0.00010699,0.00021256,0.00007581,-0.00019148,-0.00010215,0.000098
 53,0.00005533,-0.00002834,-0.00020743,0.00006082,0.00033782,0.00033450
 ,0.00021197,0.00026538,0.00017998,-0.00182494,-0.00119169,0.00011517,0
 .00117183,0.00012524,-0.00124148,0.00039327,-0.00028714,0.00214955,0.0
 0010875,0.00004704,-0.00005128,-0.00036030,-0.00018591,0.00027128,0.00
 010099,0.00112157,-0.00178791,0.00001606,-0.00001159,0.00000012,-0.000
 00645,0.00001994,0.00001056,-0.00000024,-0.00000251,0.00000700,-0.0000
 0283,0.00000143,-0.00000109,-0.00000334,-0.00000073,0.00000364,0.00000
 070,0.00000142,0.00000088,0.00000320,0.00000880,-0.00000013,-0.0000001
 6,0.00000111,0.00000125,0.00000260,-0.00000542,-0.00000789,-0.00000079
 ,-0.00000060,0.00000165,0.00000135,-0.00000555,0.00001449,0.00001334,-
 0.00000967,-0.00002000,0.00000059,0.00000033,0.00000236,-0.00000523,-0
 .00000438,-0.00002242,-0.01406492,-0.00254069,0.01797079,-0.00101414,-
 0.00283011,-0.00294403,-0.00032485,-0.00008484,-0.00084297,-0.00020033
 ,0.00047611,0.00003020,0.00248311,-0.00248217,-0.00069996,0.00018703,-
 0.00005191,-0.00024932,0.00603296,0.00001022,-0.00379595,0.00011427,0.
 00203222,-0.00037930,-0.22323452,-0.04076935,0.13965855,-0.00082354,-0
 .00028680,0.00089261,-0.00021202,-0.00030293,-0.00020468,0.00099577,0.
 00136427,-0.00012978,-0.00049623,-0.00013351,0.00017101,0.00000053,-0.
 00000395,-0.00000118,0.23070485,-0.00003685,0.00000249,0.00004314,-0.0
 0009474,-0.00007468,-0.00001414,0.00001864,0.00006456,0.00000679,0.000
 08699,0.00003152,-0.00010449,-0.00005762,0.00012962,0.00015500,-0.0003
 8594,-0.00032735,-0.00042668,0.00004927,0.00006890,-0.00031694,0.00066
 811,-0.00010007,0.00066002,0.00005421,0.00000626,-0.00002761,-0.000059
 66,-0.00014383,0.00002626,0.00021748,0.00094087,0.00127615,-0.00000446
 ,-0.00000407,0.00000046,-0.00000080,0.00000173,-0.00000540,0.00000601,
 0.00000325,0.00001261,-0.00000431,-0.00000212,-0.00000859,0.00000568,-
 0.00000099,0.00000683,-0.00000082,-0.00000008,-0.00000120,-0.00000167,
 -0.00000047,-0.00000338,-0.00000084,0.00000042,0.00000037,0.00000089,-
 0.00000186,0.00000360,-0.00000066,-0.00000013,-0.00000032,0.00001269,0
 .00000003,-0.00001926,0.00000080,0.00000042,0.00000344,-0.00000028,0.0
 0000122,0.00000080,-0.00000527,-0.00000038,-0.00000446,-0.01059401,0.0
 0069718,0.00951676,-0.00335534,0.00286218,-0.00258885,0.00013285,-0.00
 068075,-0.00020862,0.00058499,-0.00110129,0.00035193,-0.00314879,0.006
 76686,-0.00289772,0.00020029,0.00024378,-0.00031086,0.00636368,0.00546
 165,-0.00587223,0.00218691,-0.00416930,0.00130077,-0.03872037,-0.04534
 559,0.02076496,-0.00052218,-0.00008473,0.00053702,-0.00027896,0.000098
 27,-0.00016698,0.00146475,-0.00140496,0.00116615,-0.00007442,-0.000290
 32,0.00015457,-0.00000274,-0.00000108,-0.00000075,0.04529647,0.0363528
 5,0.00003679,0.00010631,0.00005392,-0.00010605,-0.00014689,-0.00004883
 ,0.00000910,-0.00009398,-0.00015541,0.00014266,0.00017595,0.00016919,0
 .00020110,0.00012563,0.00014359,-0.00119735,-0.00067960,0.00042485,0.0
 0017744,-0.00014001,-0.00112491,0.00039924,0.00084866,-0.00214321,0.00
 007388,0.00008479,0.00000602,-0.00015162,-0.00010203,0.00022160,-0.001
 47158,0.00069400,-0.00296784,0.00000191,-0.00001572,-0.00000610,-0.000
 01909,-0.00003608,0.00000986,0.00000262,-0.00003947,-0.00002604,-0.000
 00563,0.00002286,0.00001054,0.00001050,0.00000399,-0.00001754,0.000001
 02,0.00000247,0.00000029,-0.00000731,-0.00000863,0.00000772,-0.0000004
 8,0.00000225,0.00000328,0.00000510,0.00001466,-0.00000087,-0.00000102,
 -0.00000123,0.00000330,-0.00002723,0.00000840,0.00005628,-0.00001451,0
 .00001455,0.00003694,-0.00000120,0.00000384,0.00000075,0.00002408,0.00
 001865,-0.00002518,-0.00781528,-0.00133187,0.01062162,-0.00137493,-0.0
 0203873,0.00018854,-0.00075333,-0.00022695,-0.00025419,-0.00004097,0.0
 0034128,-0.00000129,-0.00148425,-0.00383574,-0.00389749,0.00112621,0.0
 0032214,-0.00083532,0.02480983,0.00540688,-0.01533215,-0.00072463,0.00
 125436,0.00067781,0.13792458,0.02178386,-0.16848900,-0.00051782,-0.000
 30178,0.00027678,-0.00013136,-0.00012648,-0.00007448,0.00025065,0.0007
 8441,-0.00048532,0.00004957,0.00011918,0.00023676,0.00000254,-0.000004
 75,-0.00000129,-0.14940317,-0.02300918,0.18273684||0.00000170,-0.00000
 114,-0.00000052,0.00000082,-0.00000113,0.00000179,-0.00000131,-0.00000
 071,0.00000116,-0.00000056,0.00000016,-0.00000007,-0.00000024,-0.00000
 176,0.00000005,0.00000041,0.00000013,-0.00000050,-0.00000122,0.0000010
 2,-0.00000194,-0.00000268,0.00000093,0.00000098,0.00000263,-0.00000316
 ,0.00000112,-0.00000407,0.00000171,-0.00000067,-0.00000254,0.00000084,
 -0.00000077,0.00000172,-0.00000226,0.00000092,-0.00000097,0.00000147,-
 0.00000052,0.00000058,0.00000080,0.00000027,0.00000184,-0.00000035,0.0
 0000030,0.00000250,0.00000020,0.00000060,0.00000393,-0.00000018,0.0000
 0074,0.00000158,0.00000102,0.,0.00000209,0.00000098,0.00000012,-0.0000
 0027,0.00000117,-0.00000049,-0.00000101,0.00000192,-0.00000070,-0.0000
 0103,0.00000030,-0.00000119,-0.00000259,0.00000161,-0.00000095,-0.0000
 0372,0.00000232,-0.00000131,-0.00000298,0.00000116,-0.00000070,0.00000
 004,-0.00000044,0.00000120,0.00000081,-0.00000175,0.00000011,0.0000005
 9,-0.00000112,0.00000011,0.00000127,-0.00000168,0.00000091,0.,0.000000
 70,-0.00000056,-0.00000031,0.00000103,-0.00000021,-0.00000027,0.000001
 96,-0.00000037,-0.00000141,0.00000307,-0.00000101,-0.00000136,0.000000
 86,-0.00000087,0.00000098,-0.00000256,0.00000119,0.00000198,-0.0000041
 6,0.00000130,-0.00000069,-0.00000107,0.00000010,0.00000188,-0.00000354
 ,0.00000105,0.00000280,-0.00000044,0.00000062,-0.00000094,0.00000210,-
 0.00000129|||@


 There are more things in heaven and earth, Horatio,
 than are dreamt of in your philosophy.
                   -- Hamlet, Act I, Scene 5
 The chemist is a guest at the physicist's table and
 frequently dines well.
                   -- Richard Bersohn
 Job cpu time:  0 days  3 hours 42 minutes 11.0 seconds.
 File lengths (MBytes):  RWF=   1373 Int=      0 D2E=      0 Chk=     26 Scr=      1
 Normal termination of Gaussian 09 at Tue Sep 05 17:13:29 2023.
