 Entering Gaussian System, Link 0=g09
 Initial command:
 /apps/software//g09/l1.exe /scratch/nathalia.rosa/82990.cluster.abaxnet/Gau-22263.inp -scrdir=/scratch/nathalia.rosa/82990.cluster.abaxnet/
 Entering Link 1 = /apps/software//g09/l1.exe PID=     22264.
  
 Copyright (c) 1988,1990,1992,1993,1995,1998,2003,2009, Gaussian, Inc.
                  All Rights Reserved.
  
 This is part of the Gaussian(R) 09 program.  It is based on
 the Gaussian(R) 03 system (copyright 2003, Gaussian, Inc.),
 the Gaussian(R) 98 system (copyright 1998, Gaussian, Inc.),
 the Gaussian(R) 94 system (copyright 1995, Gaussian, Inc.),
 the Gaussian 92(TM) system (copyright 1992, Gaussian, Inc.),
 the Gaussian 90(TM) system (copyright 1990, Gaussian, Inc.),
 the Gaussian 88(TM) system (copyright 1988, Gaussian, Inc.),
 the Gaussian 86(TM) system (copyright 1986, Carnegie Mellon
 University), and the Gaussian 82(TM) system (copyright 1983,
 Carnegie Mellon University). Gaussian is a federally registered
 trademark of Gaussian, Inc.
  
 This software contains proprietary and confidential information,
 including trade secrets, belonging to Gaussian, Inc.
  
 This software is provided under written license and may be
 used, copied, transmitted, or stored only in accord with that
 written license.
  
 The following legend is applicable only to US Government
 contracts under FAR:
  
                    RESTRICTED RIGHTS LEGEND
  
 Use, reproduction and disclosure by the US Government is
 subject to restrictions as set forth in subparagraphs (a)
 and (c) of the Commercial Computer Software - Restricted
 Rights clause in FAR 52.227-19.
  
 Gaussian, Inc.
 340 Quinnipiac St., Bldg. 40, Wallingford CT 06492
  
  
 ---------------------------------------------------------------
 Warning -- This program may not be used in any manner that
 competes with the business of Gaussian, Inc. or will provide
 assistance to any competitor of Gaussian, Inc.  The licensee
 of this program is prohibited from giving any competitor of
 Gaussian, Inc. access to this program.  By using this program,
 the user acknowledges that Gaussian, Inc. is engaged in the
 business of creating and licensing software in the field of
 computational chemistry and represents and warrants to the
 licensee that it is not a competitor of Gaussian, Inc. and that
 it will not use this program in any manner prohibited above.
 ---------------------------------------------------------------
  

 Cite this work as:
 Gaussian 09, Revision A.02,
 M. J. Frisch, G. W. Trucks, H. B. Schlegel, G. E. Scuseria, 
 M. A. Robb, J. R. Cheeseman, G. Scalmani, V. Barone, B. Mennucci, 
 G. A. Petersson, H. Nakatsuji, M. Caricato, X. Li, H. P. Hratchian, 
 A. F. Izmaylov, J. Bloino, G. Zheng, J. L. Sonnenberg, M. Hada, 
 M. Ehara, K. Toyota, R. Fukuda, J. Hasegawa, M. Ishida, T. Nakajima, 
 Y. Honda, O. Kitao, H. Nakai, T. Vreven, J. A. Montgomery, Jr., 
 J. E. Peralta, F. Ogliaro, M. Bearpark, J. J. Heyd, E. Brothers, 
 K. N. Kudin, V. N. Staroverov, R. Kobayashi, J. Normand, 
 K. Raghavachari, A. Rendell, J. C. Burant, S. S. Iyengar, J. Tomasi, 
 M. Cossi, N. Rega, J. M. Millam, M. Klene, J. E. Knox, J. B. Cross, 
 V. Bakken, C. Adamo, J. Jaramillo, R. Gomperts, R. E. Stratmann, 
 O. Yazyev, A. J. Austin, R. Cammi, C. Pomelli, J. W. Ochterski, 
 R. L. Martin, K. Morokuma, V. G. Zakrzewski, G. A. Voth, 
 P. Salvador, J. J. Dannenberg, S. Dapprich, A. D. Daniels, 
 O. Farkas, J. B. Foresman, J. V. Ortiz, J. Cioslowski, 
 and D. J. Fox, Gaussian, Inc., Wallingford CT, 2009.
 
 ******************************************
 Gaussian 09:  EM64L-G09RevA.02 11-Jun-2009
                14-Sep-2023 
 ******************************************
 %chk=/home/nathalia.rosa/DPP-SUB/DPP-SUB-4b/DPP-SUB-4B-ANION.chk
 -----------------------------------------------------------
 # opt=tight freq b3lyp/6-31+g(d,p) nosymm geom=connectivity
 -----------------------------------------------------------
 1/7=10,14=-1,18=20,19=15,26=3,38=1,57=2/1,3;
 2/9=110,12=2,15=1,17=6,18=5,40=1/2;
 3/5=1,6=6,7=111,11=2,16=1,25=1,30=1,71=1,74=-5/1,2,3;
 4//1;
 5/5=2,38=5/2;
 6/7=2,8=2,9=2,10=2,28=1/1;
 7/30=1/1,2,3,16;
 1/7=10,14=-1,18=20,19=15/3(2);
 2/9=110,15=1/2;
 99//99;
 2/9=110,15=1/2;
 3/5=1,6=6,7=111,11=2,16=1,25=1,30=1,71=1,74=-5/1,2,3;
 4/5=5,16=3/1;
 5/5=2,38=5/2;
 7/30=1/1,2,3,16;
 1/7=10,14=-1,18=20,19=15/3(-5);
 2/9=110,15=1/2;
 6/7=2,8=2,9=2,10=2,19=2,28=1/1;
 99/9=1/99;
 -------
 Energy:
 -------
 Symbolic Z-matrix:
 Charge = -1 Multiplicity = 2
 N                     1.35556  -0.43339  -0.0764 
 C                     0.70668  -0.29355   1.18257 
 C                     2.30566   0.56331  -0.31424 
 C                     2.32264   1.36237   0.82476 
 C                     1.37679   0.85587   1.76873 
 C                     1.49636   1.56305   2.96113 
 C                     3.04613   2.46394   1.43868 
 N                     2.51177   2.50109   2.75733 
 O                    -0.20697  -1.01892   1.56215 
 O                     3.89652   3.24599   1.02618 
 H                     2.67343   3.30357   3.34788 
 H                     0.95286  -1.01975  -0.79255 
 C                     4.06378   0.15125  -3.62542 
 C                     3.29088  -0.35856  -2.51211 
 C                     2.9253   -1.7381   -2.5179 
 C                     3.26829  -2.53248  -3.58809 
 H                     2.99385  -3.58317  -3.58046 
 C                     3.99376  -2.01295  -4.70184 
 H                     4.24119  -2.67159  -5.52872 
 C                     4.39553  -0.70114  -4.72138 
 H                     4.96856  -0.30325  -5.55377 
 C                     3.06155   0.6331   -1.52762 
 C                     4.41218   1.48838  -3.45473 
 H                     4.99112   2.10816  -4.12645 
 S                     3.83619   2.12962  -1.98382 
 C                     1.15194   1.91168   5.49328 
 C                     0.12406   1.63018   6.47348 
 C                     0.29551   2.03301   7.83212 
 H                    -0.48743   1.82288   8.55488 
 C                     1.45101   2.67141   8.2062 
 H                     1.59355   2.98201   9.23671 
 C                     2.48618   2.9136    7.25415 
 H                     3.40622   3.38717   7.58364 
 C                     2.35229   2.54494   5.93501 
 C                    -0.95629   0.94744   5.921 
 H                    -1.84975   0.60903   6.42866 
 C                     0.7995    1.44032   4.20521 
 S                    -0.74906   0.63587   4.25777 
 H                     2.41751  -2.18145  -1.66941 
 H                     3.18058   2.70113   5.25393 
 

 GradGradGradGradGradGradGradGradGradGradGradGradGradGradGradGradGradGrad
 Berny optimization.
 Initialization pass.
                           ----------------------------
                           !    Initial Parameters    !
                           ! (Angstroms and Degrees)  !
 --------------------------                            --------------------------
 ! Name  Definition              Value          Derivative Info.                !
 --------------------------------------------------------------------------------
 ! R1    R(1,2)                  1.4232         estimate D2E/DX2                !
 ! R2    R(1,3)                  1.3974         estimate D2E/DX2                !
 ! R3    R(1,12)                 1.0094         estimate D2E/DX2                !
 ! R4    R(2,5)                  1.4539         estimate D2E/DX2                !
 ! R5    R(2,9)                  1.2268         estimate D2E/DX2                !
 ! R6    R(3,4)                  1.3914         estimate D2E/DX2                !
 ! R7    R(3,22)                 1.4313         estimate D2E/DX2                !
 ! R8    R(4,5)                  1.4291         estimate D2E/DX2                !
 ! R9    R(4,7)                  1.4539         estimate D2E/DX2                !
 ! R10   R(5,6)                  1.3915         estimate D2E/DX2                !
 ! R11   R(6,8)                  1.3973         estimate D2E/DX2                !
 ! R12   R(6,37)                 1.4312         estimate D2E/DX2                !
 ! R13   R(7,8)                  1.4233         estimate D2E/DX2                !
 ! R14   R(7,10)                 1.2268         estimate D2E/DX2                !
 ! R15   R(8,11)                 1.0094         estimate D2E/DX2                !
 ! R16   R(13,14)                1.448          estimate D2E/DX2                !
 ! R17   R(13,20)                1.4275         estimate D2E/DX2                !
 ! R18   R(13,23)                1.3923         estimate D2E/DX2                !
 ! R19   R(14,15)                1.4272         estimate D2E/DX2                !
 ! R20   R(14,22)                1.416          estimate D2E/DX2                !
 ! R21   R(15,16)                1.3762         estimate D2E/DX2                !
 ! R22   R(15,39)                1.0837         estimate D2E/DX2                !
 ! R23   R(16,17)                1.086          estimate D2E/DX2                !
 ! R24   R(16,18)                1.4271         estimate D2E/DX2                !
 ! R25   R(18,19)                1.0857         estimate D2E/DX2                !
 ! R26   R(18,20)                1.3721         estimate D2E/DX2                !
 ! R27   R(20,21)                1.0861         estimate D2E/DX2                !
 ! R28   R(22,25)                1.7458         estimate D2E/DX2                !
 ! R29   R(23,24)                1.0819         estimate D2E/DX2                !
 ! R30   R(23,25)                1.7049         estimate D2E/DX2                !
 ! R31   R(26,27)                1.448          estimate D2E/DX2                !
 ! R32   R(26,34)                1.4272         estimate D2E/DX2                !
 ! R33   R(26,37)                1.4162         estimate D2E/DX2                !
 ! R34   R(27,28)                1.4274         estimate D2E/DX2                !
 ! R35   R(27,35)                1.3923         estimate D2E/DX2                !
 ! R36   R(28,29)                1.0861         estimate D2E/DX2                !
 ! R37   R(28,30)                1.3721         estimate D2E/DX2                !
 ! R38   R(30,31)                1.0857         estimate D2E/DX2                !
 ! R39   R(30,32)                1.4271         estimate D2E/DX2                !
 ! R40   R(32,33)                1.086          estimate D2E/DX2                !
 ! R41   R(32,34)                1.3762         estimate D2E/DX2                !
 ! R42   R(34,40)                1.0837         estimate D2E/DX2                !
 ! R43   R(35,36)                1.0819         estimate D2E/DX2                !
 ! R44   R(35,38)                1.7048         estimate D2E/DX2                !
 ! R45   R(37,38)                1.7458         estimate D2E/DX2                !
 ! A1    A(2,1,3)              112.9838         estimate D2E/DX2                !
 ! A2    A(2,1,12)             120.185          estimate D2E/DX2                !
 ! A3    A(3,1,12)             124.3905         estimate D2E/DX2                !
 ! A4    A(1,2,5)              102.9543         estimate D2E/DX2                !
 ! A5    A(1,2,9)              123.7211         estimate D2E/DX2                !
 ! A6    A(5,2,9)              133.3121         estimate D2E/DX2                !
 ! A7    A(1,3,4)              106.1749         estimate D2E/DX2                !
 ! A8    A(1,3,22)             122.5585         estimate D2E/DX2                !
 ! A9    A(4,3,22)             131.2627         estimate D2E/DX2                !
 ! A10   A(3,4,5)              109.214          estimate D2E/DX2                !
 ! A11   A(3,4,7)              141.8907         estimate D2E/DX2                !
 ! A12   A(5,4,7)              108.6005         estimate D2E/DX2                !
 ! A13   A(2,5,4)              108.5993         estimate D2E/DX2                !
 ! A14   A(2,5,6)              141.8946         estimate D2E/DX2                !
 ! A15   A(4,5,6)              109.2112         estimate D2E/DX2                !
 ! A16   A(5,6,8)              106.1783         estimate D2E/DX2                !
 ! A17   A(5,6,37)             131.2591         estimate D2E/DX2                !
 ! A18   A(8,6,37)             122.5587         estimate D2E/DX2                !
 ! A19   A(4,7,8)              102.954          estimate D2E/DX2                !
 ! A20   A(4,7,10)             133.3128         estimate D2E/DX2                !
 ! A21   A(8,7,10)             123.7208         estimate D2E/DX2                !
 ! A22   A(6,8,7)              112.9813         estimate D2E/DX2                !
 ! A23   A(6,8,11)             124.3853         estimate D2E/DX2                !
 ! A24   A(7,8,11)             120.1769         estimate D2E/DX2                !
 ! A25   A(14,13,20)           120.272          estimate D2E/DX2                !
 ! A26   A(14,13,23)           112.1755         estimate D2E/DX2                !
 ! A27   A(20,13,23)           127.5483         estimate D2E/DX2                !
 ! A28   A(13,14,15)           118.29           estimate D2E/DX2                !
 ! A29   A(13,14,22)           111.9884         estimate D2E/DX2                !
 ! A30   A(15,14,22)           129.6626         estimate D2E/DX2                !
 ! A31   A(14,15,16)           119.8196         estimate D2E/DX2                !
 ! A32   A(14,15,39)           120.8185         estimate D2E/DX2                !
 ! A33   A(16,15,39)           119.3073         estimate D2E/DX2                !
 ! A34   A(15,16,17)           119.3423         estimate D2E/DX2                !
 ! A35   A(15,16,18)           121.5634         estimate D2E/DX2                !
 ! A36   A(17,16,18)           119.0883         estimate D2E/DX2                !
 ! A37   A(16,18,19)           119.3            estimate D2E/DX2                !
 ! A38   A(16,18,20)           120.531          estimate D2E/DX2                !
 ! A39   A(19,18,20)           120.1602         estimate D2E/DX2                !
 ! A40   A(13,20,18)           119.4656         estimate D2E/DX2                !
 ! A41   A(13,20,21)           119.491          estimate D2E/DX2                !
 ! A42   A(18,20,21)           121.0416         estimate D2E/DX2                !
 ! A43   A(3,22,14)            129.8499         estimate D2E/DX2                !
 ! A44   A(3,22,25)            119.8459         estimate D2E/DX2                !
 ! A45   A(14,22,25)           110.2904         estimate D2E/DX2                !
 ! A46   A(13,23,24)           127.4423         estimate D2E/DX2                !
 ! A47   A(13,23,25)           112.4859         estimate D2E/DX2                !
 ! A48   A(24,23,25)           120.0659         estimate D2E/DX2                !
 ! A49   A(22,25,23)            93.0347         estimate D2E/DX2                !
 ! A50   A(27,26,34)           118.2797         estimate D2E/DX2                !
 ! A51   A(27,26,37)           111.9839         estimate D2E/DX2                !
 ! A52   A(34,26,37)           129.68           estimate D2E/DX2                !
 ! A53   A(26,27,28)           120.2781         estimate D2E/DX2                !
 ! A54   A(26,27,35)           112.1816         estimate D2E/DX2                !
 ! A55   A(28,27,35)           127.5365         estimate D2E/DX2                !
 ! A56   A(27,28,29)           119.4871         estimate D2E/DX2                !
 ! A57   A(27,28,30)           119.4685         estimate D2E/DX2                !
 ! A58   A(29,28,30)           121.0428         estimate D2E/DX2                !
 ! A59   A(28,30,31)           120.1614         estimate D2E/DX2                !
 ! A60   A(28,30,32)           120.5265         estimate D2E/DX2                !
 ! A61   A(31,30,32)           119.3032         estimate D2E/DX2                !
 ! A62   A(30,32,33)           119.0868         estimate D2E/DX2                !
 ! A63   A(30,32,34)           121.5622         estimate D2E/DX2                !
 ! A64   A(33,32,34)           119.345          estimate D2E/DX2                !
 ! A65   A(26,34,32)           119.8248         estimate D2E/DX2                !
 ! A66   A(26,34,40)           120.8145         estimate D2E/DX2                !
 ! A67   A(32,34,40)           119.3055         estimate D2E/DX2                !
 ! A68   A(27,35,36)           127.4438         estimate D2E/DX2                !
 ! A69   A(27,35,38)           112.4842         estimate D2E/DX2                !
 ! A70   A(36,35,38)           120.0664         estimate D2E/DX2                !
 ! A71   A(6,37,26)            129.8592         estimate D2E/DX2                !
 ! A72   A(6,37,38)            119.8387         estimate D2E/DX2                !
 ! A73   A(26,37,38)           110.2875         estimate D2E/DX2                !
 ! A74   A(35,38,37)            93.037          estimate D2E/DX2                !
 ! D1    D(3,1,2,5)             -2.7098         estimate D2E/DX2                !
 ! D2    D(3,1,2,9)            176.1573         estimate D2E/DX2                !
 ! D3    D(12,1,2,5)          -165.7452         estimate D2E/DX2                !
 ! D4    D(12,1,2,9)            13.1219         estimate D2E/DX2                !
 ! D5    D(2,1,3,4)              1.8122         estimate D2E/DX2                !
 ! D6    D(2,1,3,22)          -178.8322         estimate D2E/DX2                !
 ! D7    D(12,1,3,4)           164.0154         estimate D2E/DX2                !
 ! D8    D(12,1,3,22)          -16.6289         estimate D2E/DX2                !
 ! D9    D(1,2,5,4)              2.5448         estimate D2E/DX2                !
 ! D10   D(1,2,5,6)           -170.0665         estimate D2E/DX2                !
 ! D11   D(9,2,5,4)           -176.1602         estimate D2E/DX2                !
 ! D12   D(9,2,5,6)             11.2285         estimate D2E/DX2                !
 ! D13   D(1,3,4,5)             -0.0613         estimate D2E/DX2                !
 ! D14   D(1,3,4,7)            172.5249         estimate D2E/DX2                !
 ! D15   D(22,3,4,5)          -179.3388         estimate D2E/DX2                !
 ! D16   D(22,3,4,7)            -6.7525         estimate D2E/DX2                !
 ! D17   D(1,3,22,14)          -17.8595         estimate D2E/DX2                !
 ! D18   D(1,3,22,25)          160.6517         estimate D2E/DX2                !
 ! D19   D(4,3,22,14)          161.3172         estimate D2E/DX2                !
 ! D20   D(4,3,22,25)          -20.1716         estimate D2E/DX2                !
 ! D21   D(3,4,5,2)             -1.6233         estimate D2E/DX2                !
 ! D22   D(3,4,5,6)            173.5558         estimate D2E/DX2                !
 ! D23   D(7,4,5,2)           -176.8035         estimate D2E/DX2                !
 ! D24   D(7,4,5,6)             -1.6244         estimate D2E/DX2                !
 ! D25   D(3,4,7,8)           -170.0544         estimate D2E/DX2                !
 ! D26   D(3,4,7,10)            11.2409         estimate D2E/DX2                !
 ! D27   D(5,4,7,8)              2.5591         estimate D2E/DX2                !
 ! D28   D(5,4,7,10)          -176.1456         estimate D2E/DX2                !
 ! D29   D(2,5,6,8)            172.5094         estimate D2E/DX2                !
 ! D30   D(2,5,6,37)            -6.7633         estimate D2E/DX2                !
 ! D31   D(4,5,6,8)             -0.0746         estimate D2E/DX2                !
 ! D32   D(4,5,6,37)          -179.3474         estimate D2E/DX2                !
 ! D33   D(5,6,8,7)              1.8358         estimate D2E/DX2                !
 ! D34   D(5,6,8,11)           163.9818         estimate D2E/DX2                !
 ! D35   D(37,6,8,7)          -178.8128         estimate D2E/DX2                !
 ! D36   D(37,6,8,11)          -16.6669         estimate D2E/DX2                !
 ! D37   D(5,6,37,26)          161.5253         estimate D2E/DX2                !
 ! D38   D(5,6,37,38)          -20.0092         estimate D2E/DX2                !
 ! D39   D(8,6,37,26)          -17.646          estimate D2E/DX2                !
 ! D40   D(8,6,37,38)          160.8194         estimate D2E/DX2                !
 ! D41   D(4,7,8,6)             -2.7334         estimate D2E/DX2                !
 ! D42   D(4,7,8,11)          -165.7146         estimate D2E/DX2                !
 ! D43   D(10,7,8,6)           176.1335         estimate D2E/DX2                !
 ! D44   D(10,7,8,11)           13.1523         estimate D2E/DX2                !
 ! D45   D(20,13,14,15)          2.6328         estimate D2E/DX2                !
 ! D46   D(20,13,14,22)       -179.8925         estimate D2E/DX2                !
 ! D47   D(23,13,14,15)       -176.6747         estimate D2E/DX2                !
 ! D48   D(23,13,14,22)          0.8            estimate D2E/DX2                !
 ! D49   D(14,13,20,18)         -0.9972         estimate D2E/DX2                !
 ! D50   D(14,13,20,21)        179.4808         estimate D2E/DX2                !
 ! D51   D(23,13,20,18)        178.194          estimate D2E/DX2                !
 ! D52   D(23,13,20,21)         -1.3281         estimate D2E/DX2                !
 ! D53   D(14,13,23,24)        179.458          estimate D2E/DX2                !
 ! D54   D(14,13,23,25)          0.3506         estimate D2E/DX2                !
 ! D55   D(20,13,23,24)          0.2124         estimate D2E/DX2                !
 ! D56   D(20,13,23,25)       -178.895          estimate D2E/DX2                !
 ! D57   D(13,14,15,16)         -2.2935         estimate D2E/DX2                !
 ! D58   D(13,14,15,39)        175.0003         estimate D2E/DX2                !
 ! D59   D(22,14,15,16)       -179.2513         estimate D2E/DX2                !
 ! D60   D(22,14,15,39)         -1.9574         estimate D2E/DX2                !
 ! D61   D(13,14,22,3)         177.0704         estimate D2E/DX2                !
 ! D62   D(13,14,22,25)         -1.5528         estimate D2E/DX2                !
 ! D63   D(15,14,22,3)          -5.8185         estimate D2E/DX2                !
 ! D64   D(15,14,22,25)        175.5583         estimate D2E/DX2                !
 ! D65   D(14,15,16,17)        179.4642         estimate D2E/DX2                !
 ! D66   D(14,15,16,18)          0.3593         estimate D2E/DX2                !
 ! D67   D(39,15,16,17)          2.1293         estimate D2E/DX2                !
 ! D68   D(39,15,16,18)       -176.9755         estimate D2E/DX2                !
 ! D69   D(15,16,18,19)       -179.7236         estimate D2E/DX2                !
 ! D70   D(15,16,18,20)          1.354          estimate D2E/DX2                !
 ! D71   D(17,16,18,19)          1.1693         estimate D2E/DX2                !
 ! D72   D(17,16,18,20)       -177.7531         estimate D2E/DX2                !
 ! D73   D(16,18,20,13)         -0.9954         estimate D2E/DX2                !
 ! D74   D(16,18,20,21)        178.519          estimate D2E/DX2                !
 ! D75   D(19,18,20,13)       -179.9085         estimate D2E/DX2                !
 ! D76   D(19,18,20,21)         -0.3941         estimate D2E/DX2                !
 ! D77   D(3,22,25,23)        -177.2778         estimate D2E/DX2                !
 ! D78   D(14,22,25,23)          1.5037         estimate D2E/DX2                !
 ! D79   D(13,23,25,22)         -1.0707         estimate D2E/DX2                !
 ! D80   D(24,23,25,22)        179.7482         estimate D2E/DX2                !
 ! D81   D(34,26,27,28)          2.6532         estimate D2E/DX2                !
 ! D82   D(34,26,27,35)       -176.6908         estimate D2E/DX2                !
 ! D83   D(37,26,27,28)       -179.8131         estimate D2E/DX2                !
 ! D84   D(37,26,27,35)          0.8429         estimate D2E/DX2                !
 ! D85   D(27,26,34,32)         -2.334          estimate D2E/DX2                !
 ! D86   D(27,26,34,40)        174.9449         estimate D2E/DX2                !
 ! D87   D(37,26,34,32)       -179.362          estimate D2E/DX2                !
 ! D88   D(37,26,34,40)         -2.0831         estimate D2E/DX2                !
 ! D89   D(27,26,37,6)         176.9933         estimate D2E/DX2                !
 ! D90   D(27,26,37,38)         -1.5876         estimate D2E/DX2                !
 ! D91   D(34,26,37,6)          -5.829          estimate D2E/DX2                !
 ! D92   D(34,26,37,38)        175.5901         estimate D2E/DX2                !
 ! D93   D(26,27,28,29)        179.476          estimate D2E/DX2                !
 ! D94   D(26,27,28,30)         -0.9725         estimate D2E/DX2                !
 ! D95   D(35,27,28,29)         -1.29           estimate D2E/DX2                !
 ! D96   D(35,27,28,30)        178.2615         estimate D2E/DX2                !
 ! D97   D(26,27,35,36)        179.4443         estimate D2E/DX2                !
 ! D98   D(26,27,35,38)          0.3191         estimate D2E/DX2                !
 ! D99   D(28,27,35,36)          0.1587         estimate D2E/DX2                !
 ! D100  D(28,27,35,38)       -178.9665         estimate D2E/DX2                !
 ! D101  D(27,28,30,31)       -179.952          estimate D2E/DX2                !
 ! D102  D(27,28,30,32)         -1.0456         estimate D2E/DX2                !
 ! D103  D(29,28,30,31)         -0.4076         estimate D2E/DX2                !
 ! D104  D(29,28,30,32)        178.4988         estimate D2E/DX2                !
 ! D105  D(28,30,32,33)       -177.7186         estimate D2E/DX2                !
 ! D106  D(28,30,32,34)          1.3844         estimate D2E/DX2                !
 ! D107  D(31,30,32,33)          1.1971         estimate D2E/DX2                !
 ! D108  D(31,30,32,34)       -179.6999         estimate D2E/DX2                !
 ! D109  D(30,32,34,26)          0.3759         estimate D2E/DX2                !
 ! D110  D(30,32,34,40)       -176.9443         estimate D2E/DX2                !
 ! D111  D(33,32,34,26)        179.4766         estimate D2E/DX2                !
 ! D112  D(33,32,34,40)          2.1564         estimate D2E/DX2                !
 ! D113  D(27,35,38,37)         -1.061          estimate D2E/DX2                !
 ! D114  D(36,35,38,37)        179.7416         estimate D2E/DX2                !
 ! D115  D(6,37,38,35)        -177.2257         estimate D2E/DX2                !
 ! D116  D(26,37,38,35)          1.5185         estimate D2E/DX2                !
 --------------------------------------------------------------------------------
 Trust Radius=3.00D-01 FncErr=1.00D-07 GrdErr=1.00D-06
 Number of steps in this run= 240 maximum allowed number of steps= 240.
 GradGradGradGradGradGradGradGradGradGradGradGradGradGradGradGradGradGrad

                          Input orientation:                          
 ---------------------------------------------------------------------
 Center     Atomic      Atomic             Coordinates (Angstroms)
 Number     Number       Type             X           Y           Z
 ---------------------------------------------------------------------
      1          7           0        1.355555   -0.433386   -0.076395
      2          6           0        0.706675   -0.293545    1.182565
      3          6           0        2.305660    0.563309   -0.314243
      4          6           0        2.322644    1.362367    0.824757
      5          6           0        1.376792    0.855873    1.768728
      6          6           0        1.496355    1.563046    2.961134
      7          6           0        3.046131    2.463938    1.438682
      8          7           0        2.511768    2.501091    2.757331
      9          8           0       -0.206973   -1.018922    1.562151
     10          8           0        3.896520    3.245991    1.026185
     11          1           0        2.673427    3.303566    3.347883
     12          1           0        0.952863   -1.019753   -0.792550
     13          6           0        4.063776    0.151248   -3.625415
     14          6           0        3.290879   -0.358562   -2.512107
     15          6           0        2.925297   -1.738098   -2.517900
     16          6           0        3.268285   -2.532478   -3.588085
     17          1           0        2.993851   -3.583169   -3.580458
     18          6           0        3.993762   -2.012953   -4.701844
     19          1           0        4.241187   -2.671592   -5.528724
     20          6           0        4.395530   -0.701136   -4.721379
     21          1           0        4.968556   -0.303253   -5.553767
     22          6           0        3.061554    0.633096   -1.527618
     23          6           0        4.412177    1.488380   -3.454733
     24          1           0        4.991121    2.108156   -4.126452
     25         16           0        3.836186    2.129625   -1.983818
     26          6           0        1.151938    1.911681    5.493276
     27          6           0        0.124056    1.630182    6.473475
     28          6           0        0.295510    2.033012    7.832117
     29          1           0       -0.487427    1.822882    8.554882
     30          6           0        1.451014    2.671414    8.206196
     31          1           0        1.593551    2.982011    9.236713
     32          6           0        2.486178    2.913598    7.254151
     33          1           0        3.406220    3.387173    7.583641
     34          6           0        2.352291    2.544937    5.935013
     35          6           0       -0.956291    0.947442    5.921001
     36          1           0       -1.849749    0.609025    6.428661
     37          6           0        0.799499    1.440322    4.205208
     38         16           0       -0.749063    0.635874    4.257771
     39          1           0        2.417505   -2.181449   -1.669414
     40          1           0        3.180576    2.701130    5.253927
 ---------------------------------------------------------------------
                    Distance matrix (angstroms):
                    1          2          3          4          5
     1  N    0.000000
     2  C    1.423229   0.000000
     3  C    1.397380   2.351890   0.000000
     4  C    2.229813   2.341245   1.391439   0.000000
     5  C    2.251026   1.453893   2.299382   1.429074   0.000000
     6  C    3.637602   2.689578   3.518884   2.299376   1.391482
     7  C    3.680760   3.625240   2.689504   1.453890   2.341260
     8  N    4.240046   3.680793   3.637588   2.251067   2.229854
     9  O    2.338628   1.226788   3.512497   3.551514   2.462893
    10  O    4.605432   4.767377   3.394756   2.462864   3.551487
    11  H    5.237106   4.636370   4.588619   3.202728   3.188447
    12  H    1.009388   2.118742   2.136568   3.188491   3.202785
    13  C    4.502422   5.880871   3.771555   4.929744   6.067385
    14  C    3.111876   4.509206   2.578974   3.877336   4.843979
    15  C    3.182343   4.549995   3.246002   4.598851   5.244209
    16  C    4.516269   5.859502   4.607449   5.961311   6.614689
    17  H    4.988347   6.224081   5.323067   6.656934   7.136790
    18  C    5.554273   6.956118   5.360770   6.687955   7.546323
    19  H    6.562342   7.949169   6.434412   7.766618   8.596544
    20  C    5.557789   6.973545   5.038772   6.270130   7.325199
    21  H    6.562950   7.971317   5.940922   7.103570   8.237917
    22  C    2.480698   3.707993   1.431267   2.571282   3.708632
    23  C    4.944622   6.197623   3.893051   4.764038   6.074387
    24  H    6.006641   7.232586   4.912351   5.673750   7.027427
    25  S    4.044851   5.068686   2.753786   3.281400   4.663975
    26  C    6.046655   4.862459   6.072599   4.844313   3.877828
    27  C    6.976797   5.659850   7.209073   6.067415   4.929863
    28  C    8.351729   7.056803   8.518445   7.325444   6.270527
    29  H    9.109680   7.762487   9.383456   8.237925   7.103682
    30  C    8.845915   7.660053   8.818867   7.547118   6.688998
    31  H    9.922477   8.739858   9.878157   8.597431   7.767770
    32  C    8.137415   7.093416   7.926981   6.615903   5.962788
    33  H    8.802162   7.861870   8.459433   7.138381   6.658774
    34  C    6.782398   5.775015   6.556083   5.245385   4.600268
    35  C    6.574198   5.172841   7.047422   6.074149   4.763720
    36  H    7.326414   5.905206   7.920623   7.027100   5.673313
    37  C    4.706602   3.485869   4.843873   3.708571   2.571241
    38  S    4.935355   3.527022   5.499083   4.663557   3.280700
    39  H    2.592522   3.824252   3.063118   4.334573   4.704171
    40  H    6.447342   5.627100   6.028289   4.705941   4.336499
                    6          7          8          9         10
     6  C    0.000000
     7  C    2.351866   0.000000
     8  N    1.397329   1.423292   0.000000
     9  O    3.394855   4.767415   4.605486   0.000000
    10  O    3.512424   1.226753   2.338649   5.942676   0.000000
    11  H    2.136465   2.118710   1.009382   5.492672   2.624796
    12  H    4.588723   4.636407   5.237192   2.624850   5.492676
    13  C    7.208845   5.659436   6.976384   6.820516   5.589525
    14  C    6.072006   4.861599   6.045792   5.410233   5.087152
    15  C    6.554330   5.772889   6.780103   5.193760   6.192330
    16  C    7.924981   7.090974   8.134706   6.394779   7.421379
    17  H    8.456858   7.858880   8.798761   6.577770   8.286941
    18  C    8.817372   7.658108   8.843766   7.607359   7.776649
    19  H    9.876434   8.737653   9.919992   8.532172   8.837614
    20  C    8.517790   7.055843   8.350684   7.795304   6.990230
    21  H    9.383112   7.761920   9.109034   8.828056   7.552626
    22  C    4.843919   3.485851   4.706640   4.791566   3.747839
    23  C    7.047762   5.173326   6.574715   7.265827   4.840839
    24  H    7.921137   5.905953   7.327213   8.316189   5.389108
    25  S    5.499852   3.528379   4.936655   6.231724   3.210924
    26  C    2.579130   4.509178   3.111581   5.088105   5.409992
    27  C    3.771505   5.880715   4.502153   5.590030   6.820212
    28  C    5.038787   6.973351   5.557369   6.991371   7.794825
    29  H    5.940785   7.971028   6.562525   7.553330   8.827543
    30  C    5.361083   6.956054   5.553768   7.778871   7.606786
    31  H    6.434734   7.949068   6.561768   8.840150   8.531478
    32  C    4.608008   5.859643   4.515773   7.424058   6.394303
    33  H    5.323776   6.224351   4.987831   8.290186   6.577276
    34  C    3.246643   4.550271   3.181983   6.194582   5.193526
    35  C    3.892975   6.197606   4.944701   4.840211   7.265833
    36  H    4.912261   7.232581   6.006780   5.388121   8.316246
    37  C    1.431220   3.707939   2.480614   3.747882   4.791468
    38  S    2.753692   5.068785   4.045167   3.209140   6.231958
    39  H    6.025922   5.624505   6.444466   4.322310   6.237856
    40  H    3.064104   3.824974   2.592356   6.240472   4.322413
                   11         12         13         14         15
    11  H    0.000000
    12  H    6.228532   0.000000
    13  C    7.777986   4.367396   0.000000
    14  C    6.937717   2.976637   1.448009   0.000000
    15  C    7.738813   2.717232   2.468269   1.427166   0.000000
    16  C    9.084102   3.932497   2.799390   2.425727   1.376218
    17  H    9.774032   4.302228   3.884924   3.409940   2.130262
    18  C    9.736876   5.051346   2.418133   2.833020   2.446789
    19  H   10.814552   5.997749   3.409177   3.918312   3.415851
    20  C    9.171492   5.233466   1.427500   2.493691   2.844678
    21  H    9.875026   6.269637   2.178013   3.474098   3.930671
    22  C    5.572483   2.778275   2.374316   1.416049   2.573283
    23  C    7.252154   5.034362   1.392278   2.357339   3.674048
    24  H    7.916211   6.099692   2.222723   3.403179   4.652820
    25  S    5.581862   4.432973   2.580816   2.601446   4.009270
    26  C    2.975732   6.938627   9.732854   8.591579   8.980236
    27  C    4.366787   7.778444  10.940577   9.732654  10.001854
    28  C    5.232318   9.172588  12.207207  11.031538  11.325189
    29  H    6.268673   9.875702  13.109822  11.895904  12.121624
    30  C    5.049467   9.739112  12.375976  11.289282  11.688607
    31  H    5.995652  10.817149  13.399611  12.331874  12.736715
    32  C    3.930148   9.086897  11.335094  10.331233  10.831624
    33  H    4.299491   9.777553  11.685312  10.768842  11.337584
    34  C    2.715122   7.741157  10.003035   8.981375   9.493390
    35  C    5.034591   7.251654  10.815223   9.532125   9.669224
    36  H    6.100071   7.915393  11.673208  10.358553  10.409179
    37  C    2.778181   5.572529   8.581135   7.386831   7.734439
    38  S    4.433725   5.580627   9.248941   7.946149   8.065134
    39  H    7.438021   2.064850   3.460870   2.189939   1.083670
    40  H    2.062313   7.440938   9.280337   8.347764   8.953949
                   16         17         18         19         20
    16  C    0.000000
    17  H    1.085967   0.000000
    18  C    1.427124   2.173225   0.000000
    19  H    2.175309   2.486475   1.085705   0.000000
    20  C    2.430813   3.401841   1.372102   2.135023   0.000000
    21  H    3.424072   4.307117   2.144544   2.477645   1.086066
    22  C    3.782740   4.689949   4.236307   5.321780   3.709417
    23  C    4.182532   5.267643   3.740279   4.651456   2.529555
    24  H    4.979306   6.056268   4.278941   5.037336   2.932710
    25  S    4.963002   5.991227   4.957161   5.981812   3.977476
    26  C   10.329598  10.766553  11.288011  12.330220  11.031178
    27  C   11.333530  11.683164  12.374765  13.398090  12.206772
    28  C   12.653146  13.002669  13.680171  14.704208  13.486141
    29  H   13.436003  13.733578  14.509840  15.521213  14.369170
    30  C   13.018757  13.432251  13.965184  14.999360  13.680879
    31  H   14.060219  14.468666  14.999802  16.030949  14.705271
    32  C   12.158352  12.643357  13.018814  14.059740  12.654060
    33  H   12.643922  13.167871  13.432785  14.468584  13.004096
    34  C   10.830909  11.336202  11.688093  12.735673  11.325657
    35  C   10.971764  11.243121  12.087671  13.084624  12.025808
    36  H   11.678977  11.883493  12.841711  13.814522  12.846923
    37  C    9.089195   9.521935  10.072934  11.113167   9.859069
    38  S    9.366696   9.656478  10.477852  11.472463  10.434537
    39  H    2.127991   2.439074   3.421784   4.296549   3.926627
    40  H   10.275190  10.843138  11.045417  12.093659  10.609348
                   21         22         23         24         25
    21  H    0.000000
    22  C    4.552283   0.000000
    23  C    2.815218   2.503890   0.000000
    24  H    2.802255   3.557101   1.081899   0.000000
    25  S    4.466060   1.745787   1.704861   2.434177   0.000000
    26  C   11.895783   7.387446   9.532849  10.359396   7.947303
    27  C   13.109611   8.581408  10.815609  11.673698   9.249603
    28  C   14.369321   9.859787  12.026494  12.847637  10.435435
    29  H   15.275542  10.754890  12.974932  13.817095  11.395259
    30  C   14.510628  10.074508  12.089058  12.843046  10.479454
    31  H   15.522304  11.115001  13.086191  13.815979  11.474157
    32  C   13.437005   9.091271  10.973646  11.680822   9.368949
    33  H   13.735051   9.524640  11.245580  11.885877   9.659326
    34  C   12.122256   7.736217   9.670924  10.410921   8.067361
    35  C   12.974527   8.468991  10.817460  11.733298   9.319418
    36  H   13.816661   9.350072  11.733135  12.667095  10.267029
    37  C   10.754473   6.215609   8.469265   9.350522   6.928250
    38  S   11.394709   6.927592   9.319221  10.267060   7.887537
    39  H    5.012353   2.890773   4.542436   5.573262   4.549381
    40  H   11.359113   7.090859   8.878534   9.571896   7.289814
                   26         27         28         29         30
    26  C    0.000000
    27  C    1.447955   0.000000
    28  C    2.493665   1.427437   0.000000
    29  H    3.474023   2.177912   1.086064   0.000000
    30  C    2.833121   2.418120   1.372108   2.144561   0.000000
    31  H    3.918412   3.409156   2.135041   2.477689   1.085704
    32  C    2.425843   2.799327   2.430741   3.424017   1.427098
    33  H    3.410057   3.884853   3.401766   4.307064   2.173181
    34  C    1.427232   2.468147   2.844542   3.930531   2.446747
    35  C    2.357400   1.392304   2.529394   2.814881   3.740229
    36  H    3.403231   2.222763   2.932501   2.801818   4.278798
    37  C    1.416161   2.374301   3.709414   4.552164   4.236504
    38  S    2.601530   2.580761   3.977320   4.465714   4.957199
    39  H    8.346227   9.278743  10.608659  11.358236  11.045907
    40  H    2.189952   3.460714   3.926455   5.012172   3.421719
                   31         32         33         34         35
    31  H    0.000000
    32  C    2.175320   0.000000
    33  H    2.486478   1.085962   0.000000
    34  C    3.415837   1.376213   2.130282   0.000000
    35  C    4.651356   4.182541   5.267652   3.674085   0.000000
    36  H    5.037116   4.979232   6.056178   4.652804   1.081902
    37  C    5.321970   3.783052   4.690313   2.573628   2.503932
    38  S    5.981811   4.963175   5.991447   4.009496   1.704803
    39  H   12.094785  10.275905  10.844636   8.953786   8.876196
    40  H    4.296525   2.127963   2.439085   1.083665   4.542475
                   36         37         38         39         40
    36  H    0.000000
    37  C    3.557150   0.000000
    38  S    2.434131   1.745836   0.000000
    39  H    9.569484   7.088466   7.286699   0.000000
    40  H    5.573246   2.891189   4.549689   8.506145   0.000000
 Symmetry turned off by external request.
 Stoichiometry    C22H12N2O2S2(1-,2)
 Framework group  C1[X(C22H12N2O2S2)]
 Deg. of freedom   114
 Full point group                 C1      NOp   1
 Rotational constants (GHZ):      0.4404013      0.0726528      0.0645962
 Standard basis: 6-31+G(d,p) (6D, 7F)
 Integral buffers will be    131072 words long.
 Raffenetti 2 integral format.
 Two-electron integral symmetry is turned off.
   600 basis functions,  1028 primitive gaussians,   600 cartesian basis functions
   104 alpha electrons      103 beta electrons
       nuclear repulsion energy      2628.6637159897 Hartrees.
 NAtoms=   40 NActive=   40 NUniq=   40 SFac= 7.50D-01 NAtFMM=   80 NAOKFM=F Big=F
 One-electron integrals computed using PRISM.
 NBasis=   600 RedAO= T  NBF=   600
 NBsUse=   592 1.00D-06 NBFU=   592
 Harris functional with IExCor=  402 diagonalized for initial guess.
 ExpMin= 4.05D-02 ExpMax= 2.19D+04 ExpMxC= 3.30D+03 IAcc=2 IRadAn=         0 AccDes= 0.00D+00
 HarFok:  IExCor=  402 AccDes= 0.00D+00 IRadAn=         0 IDoV= 1
 ScaDFX=  1.000000  1.000000  1.000000  1.000000
 FoFCou: FMM=F IPFlag=           0 FMFlag=      100000 FMFlg1=           0
         NFxFlg=           0 DoJE=T BraDBF=F KetDBF=T FulRan=T
         Omega=  0.000000  0.000000  1.000000  0.000000  0.000000 ICntrl=     500 IOpCl=  0
         NMat0=    1 NMatS0=    1 NMatT0=    0 NMatD0=    1 NMtDS0=    0 NMtDT0=    0
         I1Cent=           4 NGrid=           0.
 Symmetry not used in FoFCou.
 Initial guess <Sx>= 0.0000 <Sy>= 0.0000 <Sz>= 0.5000 <S**2>= 0.7500 S= 0.5000
 Requested convergence on RMS density matrix=1.00D-08 within 128 cycles.
 Requested convergence on MAX density matrix=1.00D-06.
 Requested convergence on             energy=1.00D-06.
 No special actions if energy rises.
 Restarting incremental Fock formation.
 SCF Done:  E(UB3LYP) =  -1902.02294674     A.U. after   38 cycles
             Convg  =    0.3545D-08             -V/T =  2.0068
 <Sx>= 0.0000 <Sy>= 0.0000 <Sz>= 0.5000 <S**2>= 0.7987 S= 0.5241
 <L.S>= 0.000000000000E+00
 Annihilation of the first spin contaminant:
 S**2 before annihilation     0.7987,   after     0.7515
 DiagDN has N=   600 LTot=  1832 but NE2=     3 cannot use DSYEVD.

 **********************************************************************

            Population analysis using the SCF density.

 **********************************************************************

 Alpha  occ. eigenvalues --  -88.81448 -88.81443 -19.00999 -19.00995 -14.26678
 Alpha  occ. eigenvalues --  -14.26677 -10.17819 -10.17816 -10.13686 -10.13685
 Alpha  occ. eigenvalues --  -10.12719 -10.12718 -10.11157 -10.11153 -10.10962
 Alpha  occ. eigenvalues --  -10.10961 -10.10857 -10.10853 -10.10802 -10.10799
 Alpha  occ. eigenvalues --  -10.10736 -10.10733 -10.10685 -10.10685 -10.10360
 Alpha  occ. eigenvalues --  -10.10359 -10.07297 -10.07252  -7.87319  -7.87314
 Alpha  occ. eigenvalues --   -5.83729  -5.83724  -5.83333  -5.83328  -5.83127
 Alpha  occ. eigenvalues --   -5.83122  -0.92801  -0.92323  -0.85566  -0.84289
 Alpha  occ. eigenvalues --   -0.79642  -0.79574  -0.73978  -0.73973  -0.69037
 Alpha  occ. eigenvalues --   -0.68250  -0.68071  -0.65034  -0.64254  -0.63963
 Alpha  occ. eigenvalues --   -0.63246  -0.58530  -0.56033  -0.55935  -0.52768
 Alpha  occ. eigenvalues --   -0.52744  -0.49610  -0.48936  -0.48749  -0.47322
 Alpha  occ. eigenvalues --   -0.44714  -0.43191  -0.42662  -0.42451  -0.39276
 Alpha  occ. eigenvalues --   -0.39014  -0.37332  -0.37319  -0.36519  -0.35324
 Alpha  occ. eigenvalues --   -0.34837  -0.34517  -0.34082  -0.33542  -0.33050
 Alpha  occ. eigenvalues --   -0.32171  -0.31767  -0.31215  -0.30683  -0.30572
 Alpha  occ. eigenvalues --   -0.30503  -0.29859  -0.28277  -0.27315  -0.26772
 Alpha  occ. eigenvalues --   -0.25576  -0.25296  -0.25231  -0.24445  -0.24431
 Alpha  occ. eigenvalues --   -0.24222  -0.23057  -0.22541  -0.19054  -0.18869
 Alpha  occ. eigenvalues --   -0.16139  -0.15779  -0.15341  -0.14905  -0.14202
 Alpha  occ. eigenvalues --   -0.12975  -0.12119  -0.07538  -0.02528
 Alpha virt. eigenvalues --    0.02519   0.05231   0.07748   0.07782   0.08669
 Alpha virt. eigenvalues --    0.08879   0.08932   0.09685   0.09854   0.10032
 Alpha virt. eigenvalues --    0.10067   0.10820   0.11035   0.11761   0.12110
 Alpha virt. eigenvalues --    0.12284   0.12708   0.12857   0.13052   0.13338
 Alpha virt. eigenvalues --    0.13869   0.14107   0.14368   0.14369   0.14785
 Alpha virt. eigenvalues --    0.15054   0.15362   0.15975   0.16202   0.16481
 Alpha virt. eigenvalues --    0.17518   0.17603   0.17796   0.17918   0.18268
 Alpha virt. eigenvalues --    0.18660   0.19229   0.19426   0.19486   0.19973
 Alpha virt. eigenvalues --    0.20372   0.20424   0.20794   0.21480   0.21523
 Alpha virt. eigenvalues --    0.21914   0.22026   0.22174   0.22897   0.23259
 Alpha virt. eigenvalues --    0.23483   0.23769   0.23830   0.23962   0.24450
 Alpha virt. eigenvalues --    0.24804   0.24891   0.25468   0.25487   0.25756
 Alpha virt. eigenvalues --    0.25831   0.26133   0.26293   0.26499   0.26562
 Alpha virt. eigenvalues --    0.26997   0.27085   0.27407   0.27594   0.27675
 Alpha virt. eigenvalues --    0.28139   0.28464   0.28843   0.28998   0.29193
 Alpha virt. eigenvalues --    0.29428   0.29726   0.30144   0.30509   0.30532
 Alpha virt. eigenvalues --    0.30657   0.30751   0.30786   0.31471   0.31689
 Alpha virt. eigenvalues --    0.31818   0.32139   0.32762   0.32901   0.32980
 Alpha virt. eigenvalues --    0.33424   0.33569   0.33842   0.34265   0.34411
 Alpha virt. eigenvalues --    0.34724   0.34977   0.35448   0.35785   0.36037
 Alpha virt. eigenvalues --    0.36171   0.36244   0.36784   0.37056   0.37425
 Alpha virt. eigenvalues --    0.37560   0.37747   0.37876   0.38241   0.38467
 Alpha virt. eigenvalues --    0.38842   0.39328   0.39624   0.39898   0.40360
 Alpha virt. eigenvalues --    0.40420   0.40844   0.40946   0.41674   0.41875
 Alpha virt. eigenvalues --    0.42464   0.42549   0.43243   0.43563   0.43806
 Alpha virt. eigenvalues --    0.44383   0.44638   0.45024   0.45573   0.45815
 Alpha virt. eigenvalues --    0.46008   0.46337   0.46364   0.47899   0.48049
 Alpha virt. eigenvalues --    0.48440   0.49329   0.49932   0.51045   0.51094
 Alpha virt. eigenvalues --    0.51661   0.51776   0.53754   0.53804   0.54619
 Alpha virt. eigenvalues --    0.54676   0.56600   0.56786   0.57526   0.58893
 Alpha virt. eigenvalues --    0.60033   0.60938   0.61706   0.62856   0.64257
 Alpha virt. eigenvalues --    0.64983   0.65316   0.66616   0.68087   0.69774
 Alpha virt. eigenvalues --    0.70146   0.70890   0.71248   0.72836   0.73427
 Alpha virt. eigenvalues --    0.75372   0.75897   0.76105   0.76518   0.77231
 Alpha virt. eigenvalues --    0.77352   0.77554   0.78031   0.78561   0.79041
 Alpha virt. eigenvalues --    0.79342   0.80054   0.80778   0.81410   0.81866
 Alpha virt. eigenvalues --    0.82258   0.82275   0.82834   0.82905   0.83623
 Alpha virt. eigenvalues --    0.83635   0.84571   0.84630   0.85002   0.85598
 Alpha virt. eigenvalues --    0.86223   0.86514   0.88179   0.88593   0.88746
 Alpha virt. eigenvalues --    0.89599   0.90067   0.90079   0.90812   0.91162
 Alpha virt. eigenvalues --    0.91843   0.92604   0.93032   0.93545   0.95395
 Alpha virt. eigenvalues --    0.95429   0.96776   0.97033   0.97416   0.97675
 Alpha virt. eigenvalues --    0.98471   0.99315   0.99481   1.00062   1.01009
 Alpha virt. eigenvalues --    1.01115   1.01888   1.03862   1.04015   1.04687
 Alpha virt. eigenvalues --    1.05234   1.06481   1.07116   1.07426   1.07990
 Alpha virt. eigenvalues --    1.09224   1.09664   1.10171   1.10355   1.11201
 Alpha virt. eigenvalues --    1.12380   1.12829   1.13908   1.14855   1.15954
 Alpha virt. eigenvalues --    1.17239   1.18283   1.18477   1.19395   1.19481
 Alpha virt. eigenvalues --    1.20479   1.21893   1.22701   1.23351   1.24002
 Alpha virt. eigenvalues --    1.24409   1.25184   1.25329   1.25623   1.26696
 Alpha virt. eigenvalues --    1.28397   1.29058   1.29702   1.29931   1.31293
 Alpha virt. eigenvalues --    1.32063   1.33420   1.34242   1.34579   1.35066
 Alpha virt. eigenvalues --    1.35411   1.36051   1.37794   1.38452   1.38945
 Alpha virt. eigenvalues --    1.40049   1.41137   1.41368   1.41586   1.42408
 Alpha virt. eigenvalues --    1.43050   1.43855   1.44331   1.44346   1.45027
 Alpha virt. eigenvalues --    1.45881   1.45997   1.47916   1.47967   1.48896
 Alpha virt. eigenvalues --    1.49529   1.49639   1.49717   1.50128   1.50888
 Alpha virt. eigenvalues --    1.51052   1.51271   1.51493   1.52613   1.53309
 Alpha virt. eigenvalues --    1.54731   1.55675   1.55934   1.56640   1.56949
 Alpha virt. eigenvalues --    1.57922   1.58800   1.60655   1.61702   1.62966
 Alpha virt. eigenvalues --    1.63702   1.66121   1.67708   1.71345   1.74671
 Alpha virt. eigenvalues --    1.74932   1.76385   1.78291   1.78530   1.80134
 Alpha virt. eigenvalues --    1.83558   1.84154   1.86985   1.88196   1.88758
 Alpha virt. eigenvalues --    1.90442   1.90535   1.92521   1.93287   1.93831
 Alpha virt. eigenvalues --    1.94696   1.95157   1.95240   1.95547   1.95692
 Alpha virt. eigenvalues --    1.97004   1.97840   1.98967   1.99401   2.00217
 Alpha virt. eigenvalues --    2.00969   2.01244   2.02281   2.03477   2.03912
 Alpha virt. eigenvalues --    2.05023   2.05136   2.06863   2.06986   2.08172
 Alpha virt. eigenvalues --    2.08685   2.09295   2.09483   2.11561   2.13216
 Alpha virt. eigenvalues --    2.13355   2.15198   2.15577   2.16346   2.16664
 Alpha virt. eigenvalues --    2.17447   2.18208   2.19502   2.21123   2.23298
 Alpha virt. eigenvalues --    2.24302   2.26254   2.26984   2.27141   2.28321
 Alpha virt. eigenvalues --    2.29339   2.30185   2.32186   2.32311   2.33330
 Alpha virt. eigenvalues --    2.35066   2.37007   2.38158   2.38756   2.39021
 Alpha virt. eigenvalues --    2.40145   2.40968   2.42177   2.43637   2.44076
 Alpha virt. eigenvalues --    2.45840   2.46406   2.46991   2.47650   2.47786
 Alpha virt. eigenvalues --    2.48237   2.49666   2.50635   2.50980   2.52227
 Alpha virt. eigenvalues --    2.55914   2.56037   2.56414   2.56629   2.57480
 Alpha virt. eigenvalues --    2.57980   2.61450   2.62081   2.62115   2.62462
 Alpha virt. eigenvalues --    2.62767   2.63632   2.65252   2.66148   2.66598
 Alpha virt. eigenvalues --    2.68087   2.68196   2.68666   2.68887   2.69776
 Alpha virt. eigenvalues --    2.71267   2.71982   2.73449   2.73842   2.74307
 Alpha virt. eigenvalues --    2.75771   2.76341   2.77137   2.78664   2.80421
 Alpha virt. eigenvalues --    2.82802   2.83238   2.85254   2.86421   2.88059
 Alpha virt. eigenvalues --    2.88977   2.89375   2.91196   2.91882   2.92877
 Alpha virt. eigenvalues --    2.94338   2.97731   2.99747   3.00468   3.05663
 Alpha virt. eigenvalues --    3.09630   3.09827   3.11098   3.13511   3.13944
 Alpha virt. eigenvalues --    3.17473   3.17676   3.24119   3.26251   3.26532
 Alpha virt. eigenvalues --    3.29255   3.30194   3.36026   3.36111   3.38213
 Alpha virt. eigenvalues --    3.38218   3.40605   3.40720   3.44934   3.45437
 Alpha virt. eigenvalues --    3.47827   3.55937   3.58292   3.58483   3.60609
 Alpha virt. eigenvalues --    3.60649   3.67784   3.67870   3.93833   3.93895
 Alpha virt. eigenvalues --    4.10134   4.10533   4.35793   4.37477   4.37955
 Alpha virt. eigenvalues --    4.40403   4.40873   4.41817   4.42678   4.45139
 Alpha virt. eigenvalues --    4.46090   4.49216   4.52542   4.53088   4.54582
 Alpha virt. eigenvalues --    4.56137   4.57504   4.62033   4.64272   4.64553
 Alpha virt. eigenvalues --    4.64933   4.72913   4.82190   4.90185   4.97460
 Alpha virt. eigenvalues --    4.97522   5.10815   5.18452
  Beta  occ. eigenvalues --  -88.81389 -88.81384 -19.00884 -19.00880 -14.26685
  Beta  occ. eigenvalues --  -14.26684 -10.17782 -10.17779 -10.13421 -10.13420
  Beta  occ. eigenvalues --  -10.12815 -10.12814 -10.10956 -10.10952 -10.10853
  Beta  occ. eigenvalues --  -10.10852 -10.10841 -10.10838 -10.10837 -10.10834
  Beta  occ. eigenvalues --  -10.10739 -10.10738 -10.10661 -10.10657 -10.10238
  Beta  occ. eigenvalues --  -10.10237 -10.07351 -10.07306  -7.87261  -7.87256
  Beta  occ. eigenvalues --   -5.83695  -5.83690  -5.83303  -5.83298  -5.82934
  Beta  occ. eigenvalues --   -5.82928  -0.92626  -0.92138  -0.85390  -0.84114
  Beta  occ. eigenvalues --   -0.79494  -0.79425  -0.73843  -0.73837  -0.69044
  Beta  occ. eigenvalues --   -0.68045  -0.67884  -0.64849  -0.64120  -0.63718
  Beta  occ. eigenvalues --   -0.62956  -0.58329  -0.55855  -0.55630  -0.52614
  Beta  occ. eigenvalues --   -0.52584  -0.49432  -0.48796  -0.48635  -0.47161
  Beta  occ. eigenvalues --   -0.44637  -0.43052  -0.42633  -0.42307  -0.39200
  Beta  occ. eigenvalues --   -0.38937  -0.37245  -0.37229  -0.36442  -0.35232
  Beta  occ. eigenvalues --   -0.34489  -0.34447  -0.34005  -0.33416  -0.32922
  Beta  occ. eigenvalues --   -0.32025  -0.31660  -0.30859  -0.30449  -0.30423
  Beta  occ. eigenvalues --   -0.30228  -0.29480  -0.28218  -0.27234  -0.26684
  Beta  occ. eigenvalues --   -0.25379  -0.25139  -0.24880  -0.24270  -0.24119
  Beta  occ. eigenvalues --   -0.23971  -0.22200  -0.21725  -0.18671  -0.18506
  Beta  occ. eigenvalues --   -0.15900  -0.15347  -0.14889  -0.14877  -0.14067
  Beta  occ. eigenvalues --   -0.12320  -0.11429  -0.06416
  Beta virt. eigenvalues --    0.01680   0.03634   0.05905   0.07751   0.07785
  Beta virt. eigenvalues --    0.08895   0.08950   0.09142   0.09703   0.09907
  Beta virt. eigenvalues --    0.10416   0.10480   0.10857   0.11081   0.11833
  Beta virt. eigenvalues --    0.12324   0.12333   0.12795   0.12868   0.13170
  Beta virt. eigenvalues --    0.13406   0.14030   0.14177   0.14433   0.14446
  Beta virt. eigenvalues --    0.14854   0.15237   0.15466   0.15980   0.16269
  Beta virt. eigenvalues --    0.16576   0.17552   0.17672   0.17836   0.18004
  Beta virt. eigenvalues --    0.18285   0.18697   0.19296   0.19514   0.19637
  Beta virt. eigenvalues --    0.20077   0.20476   0.20498   0.20853   0.21561
  Beta virt. eigenvalues --    0.21608   0.21949   0.22020   0.22213   0.23024
  Beta virt. eigenvalues --    0.23405   0.23584   0.23784   0.24023   0.24194
  Beta virt. eigenvalues --    0.24574   0.24944   0.25043   0.25557   0.25577
  Beta virt. eigenvalues --    0.25888   0.25895   0.26186   0.26370   0.26608
  Beta virt. eigenvalues --    0.26650   0.27010   0.27166   0.27506   0.27606
  Beta virt. eigenvalues --    0.27747   0.28139   0.28508   0.28880   0.29116
  Beta virt. eigenvalues --    0.29237   0.29493   0.29792   0.30225   0.30561
  Beta virt. eigenvalues --    0.30582   0.30676   0.30783   0.30825   0.31503
  Beta virt. eigenvalues --    0.31727   0.31875   0.32176   0.32877   0.32956
  Beta virt. eigenvalues --    0.33083   0.33479   0.33617   0.33883   0.34284
  Beta virt. eigenvalues --    0.34448   0.34772   0.35019   0.35479   0.35865
  Beta virt. eigenvalues --    0.36077   0.36229   0.36313   0.36878   0.37106
  Beta virt. eigenvalues --    0.37474   0.37636   0.37809   0.37925   0.38314
  Beta virt. eigenvalues --    0.38516   0.38889   0.39365   0.39672   0.39951
  Beta virt. eigenvalues --    0.40488   0.40501   0.40943   0.41044   0.41754
  Beta virt. eigenvalues --    0.41906   0.42500   0.42610   0.43297   0.43585
  Beta virt. eigenvalues --    0.43894   0.44470   0.44690   0.45066   0.45697
  Beta virt. eigenvalues --    0.45933   0.46107   0.46376   0.46477   0.47973
  Beta virt. eigenvalues --    0.48129   0.48536   0.49392   0.50044   0.51149
  Beta virt. eigenvalues --    0.51183   0.51704   0.51887   0.53811   0.53872
  Beta virt. eigenvalues --    0.54670   0.54727   0.56654   0.56851   0.57643
  Beta virt. eigenvalues --    0.58958   0.60109   0.61027   0.61790   0.62962
  Beta virt. eigenvalues --    0.64340   0.65091   0.65522   0.66897   0.68215
  Beta virt. eigenvalues --    0.69880   0.70233   0.70958   0.71387   0.73010
  Beta virt. eigenvalues --    0.73599   0.75614   0.76109   0.76232   0.76668
  Beta virt. eigenvalues --    0.77489   0.77519   0.77678   0.78392   0.78698
  Beta virt. eigenvalues --    0.79465   0.79511   0.80238   0.80890   0.81624
  Beta virt. eigenvalues --    0.82003   0.82313   0.82472   0.82941   0.83174
  Beta virt. eigenvalues --    0.83645   0.83800   0.84685   0.84775   0.85138
  Beta virt. eigenvalues --    0.85841   0.86403   0.86662   0.88349   0.88823
  Beta virt. eigenvalues --    0.88874   0.89978   0.90120   0.90176   0.90913
  Beta virt. eigenvalues --    0.91359   0.92110   0.93136   0.93151   0.93815
  Beta virt. eigenvalues --    0.95493   0.95598   0.96908   0.97051   0.97652
  Beta virt. eigenvalues --    0.97724   0.98605   0.99391   0.99559   1.00190
  Beta virt. eigenvalues --    1.01191   1.01274   1.01961   1.03916   1.04144
  Beta virt. eigenvalues --    1.04836   1.05311   1.06532   1.07189   1.07586
  Beta virt. eigenvalues --    1.08110   1.09256   1.09730   1.10282   1.10439
  Beta virt. eigenvalues --    1.11247   1.12451   1.12961   1.13997   1.14954
  Beta virt. eigenvalues --    1.16074   1.17311   1.18360   1.18536   1.19479
  Beta virt. eigenvalues --    1.19533   1.20581   1.22006   1.22741   1.23404
  Beta virt. eigenvalues --    1.24139   1.24504   1.25357   1.25432   1.25709
  Beta virt. eigenvalues --    1.26771   1.28592   1.29279   1.29877   1.30053
  Beta virt. eigenvalues --    1.31446   1.32218   1.33528   1.34313   1.34673
  Beta virt. eigenvalues --    1.35196   1.35533   1.36254   1.37916   1.38611
  Beta virt. eigenvalues --    1.39239   1.40149   1.41398   1.41705   1.41882
  Beta virt. eigenvalues --    1.42499   1.43209   1.44100   1.44432   1.44475
  Beta virt. eigenvalues --    1.45145   1.46062   1.46160   1.47983   1.48043
  Beta virt. eigenvalues --    1.48999   1.49663   1.49794   1.49920   1.50246
  Beta virt. eigenvalues --    1.50931   1.51148   1.51384   1.51597   1.52773
  Beta virt. eigenvalues --    1.53407   1.54839   1.55773   1.56053   1.56762
  Beta virt. eigenvalues --    1.57069   1.58045   1.58914   1.60739   1.61806
  Beta virt. eigenvalues --    1.63092   1.63804   1.66218   1.67760   1.71455
  Beta virt. eigenvalues --    1.74868   1.75075   1.76529   1.78897   1.79413
  Beta virt. eigenvalues --    1.80542   1.83692   1.84340   1.87123   1.88379
  Beta virt. eigenvalues --    1.88970   1.90530   1.90582   1.92666   1.93384
  Beta virt. eigenvalues --    1.93989   1.94903   1.95288   1.95368   1.95731
  Beta virt. eigenvalues --    1.95802   1.97166   1.97939   1.99075   1.99498
  Beta virt. eigenvalues --    2.00273   2.01045   2.01323   2.02373   2.03657
  Beta virt. eigenvalues --    2.03961   2.05073   2.05228   2.06949   2.07079
  Beta virt. eigenvalues --    2.08350   2.08811   2.09384   2.09578   2.11680
  Beta virt. eigenvalues --    2.13367   2.13393   2.15343   2.15751   2.16401
  Beta virt. eigenvalues --    2.16859   2.17656   2.18289   2.19621   2.21177
  Beta virt. eigenvalues --    2.23515   2.24590   2.26441   2.27183   2.27347
  Beta virt. eigenvalues --    2.28357   2.29552   2.30377   2.32309   2.32477
  Beta virt. eigenvalues --    2.33500   2.35223   2.37209   2.38334   2.38954
  Beta virt. eigenvalues --    2.39241   2.40336   2.41176   2.42417   2.44181
  Beta virt. eigenvalues --    2.44473   2.46295   2.46483   2.47065   2.47742
  Beta virt. eigenvalues --    2.47850   2.48381   2.49874   2.50831   2.51199
  Beta virt. eigenvalues --    2.52400   2.56112   2.56129   2.56617   2.56823
  Beta virt. eigenvalues --    2.57476   2.58041   2.61546   2.62254   2.62274
  Beta virt. eigenvalues --    2.62647   2.62970   2.63655   2.65351   2.66190
  Beta virt. eigenvalues --    2.66682   2.68109   2.68243   2.68772   2.69001
  Beta virt. eigenvalues --    2.69846   2.71402   2.72057   2.73532   2.74067
  Beta virt. eigenvalues --    2.74463   2.75864   2.76630   2.77267   2.78829
  Beta virt. eigenvalues --    2.80503   2.82942   2.83396   2.85354   2.86576
  Beta virt. eigenvalues --    2.88123   2.89044   2.89524   2.91304   2.91974
  Beta virt. eigenvalues --    2.93045   2.94437   2.97852   2.99773   3.00568
  Beta virt. eigenvalues --    3.05937   3.09746   3.09928   3.11140   3.13539
  Beta virt. eigenvalues --    3.13977   3.17530   3.17746   3.24159   3.26352
  Beta virt. eigenvalues --    3.26571   3.29313   3.30259   3.36032   3.36116
  Beta virt. eigenvalues --    3.38255   3.38294   3.40673   3.40766   3.44958
  Beta virt. eigenvalues --    3.45460   3.47881   3.55995   3.58355   3.58541
  Beta virt. eigenvalues --    3.60678   3.60727   3.67823   3.67927   3.93862
  Beta virt. eigenvalues --    3.93924   4.10306   4.10704   4.35830   4.37541
  Beta virt. eigenvalues --    4.38011   4.40498   4.40965   4.41905   4.42751
  Beta virt. eigenvalues --    4.45226   4.46130   4.49390   4.52639   4.53383
  Beta virt. eigenvalues --    4.54737   4.56336   4.57626   4.62181   4.64341
  Beta virt. eigenvalues --    4.64742   4.65139   4.73117   4.82458   4.90329
  Beta virt. eigenvalues --    4.97554   4.97613   5.10926   5.18563
          Condensed to atoms (all electrons):
              1          2          3          4          5          6
     1  N    7.521594   0.498218   0.045853  -0.066450  -0.333317  -0.012326
     2  C    0.498218  10.177730   0.974056  -0.993049  -4.748873  -0.285907
     3  C    0.045853   0.974056   9.797942   0.563290  -3.578372  -1.236705
     4  C   -0.066450  -0.993049   0.563290  16.539010   1.440602  -3.588400
     5  C   -0.333317  -4.748873  -3.578372   1.440602  16.508241   0.564963
     6  C   -0.012326  -0.285907  -1.236705  -3.588400   0.564963   9.792790
     7  C   -0.115459  -0.273106  -0.295091  -4.741246  -0.980894   0.966635
     8  N   -0.003287  -0.116001  -0.012883  -0.332753  -0.064310   0.045810
     9  O   -0.120739   0.255432  -0.068007  -0.043614  -0.042318   0.096818
    10  O   -0.004429   0.024943   0.097706  -0.039842  -0.044452  -0.068026
    11  H    0.000741   0.009206   0.005015   0.143149   0.045425  -0.079039
    12  H    0.289559  -0.092539  -0.080058   0.045447   0.144327   0.005313
    13  C   -0.176330  -0.331023  -0.819241  -1.414216   0.106388  -0.029008
    14  C   -0.169855  -0.404577  -0.823954  -1.054591  -0.477674   0.244806
    15  C    0.174651   0.383269   0.785703   0.713465   0.138912  -0.056301
    16  C    0.101086   0.242748  -0.501917   0.083928  -0.393337   0.005811
    17  H    0.000471   0.000194  -0.002464  -0.000334   0.000121   0.000012
    18  C    0.010694  -0.000672   0.014209  -0.010462   0.044140  -0.001275
    19  H    0.000008  -0.000007   0.000114   0.000019  -0.000036  -0.000001
    20  C   -0.053367  -0.011189   0.178693  -0.242992  -0.108425  -0.011604
    21  H   -0.000001  -0.000007   0.000435   0.000117   0.000002   0.000001
    22  C   -0.071040   0.405622   0.818554   0.505404  -0.646329  -0.503646
    23  C   -0.021523   0.033632   0.127285   0.179969   0.023803   0.024961
    24  H    0.000030  -0.000074  -0.009677   0.001865  -0.000398   0.000084
    25  S    0.040679   0.129532  -0.226312  -0.062458   0.016365  -0.023812
    26  C   -0.024606   0.076744   0.241342  -0.500001  -1.039776  -0.796355
    27  C   -0.027617  -0.208018  -0.027518   0.099610  -1.402636  -0.806589
    28  C   -0.001976   0.006501  -0.011217  -0.109173  -0.238429   0.174205
    29  H    0.000000   0.000009   0.000001   0.000002   0.000116   0.000437
    30  C    0.000135  -0.006065  -0.001268   0.044711  -0.010744   0.015259
    31  H    0.000000  -0.000002  -0.000001  -0.000036   0.000018   0.000112
    32  C    0.000585   0.058256   0.006160  -0.389128   0.086381  -0.504964
    33  H    0.000000   0.000019   0.000012   0.000125  -0.000330  -0.002465
    34  C    0.015053   0.026051  -0.056356   0.151462   0.702739   0.775881
    35  C    0.006486   0.170914   0.023695   0.023287   0.172370   0.131825
    36  H   -0.000002   0.000356   0.000085  -0.000393   0.001924  -0.009709
    37  C   -0.091313  -0.379036  -0.499952  -0.634994   0.502912   0.805281
    38  S    0.011486  -0.091281  -0.022610   0.018544  -0.061185  -0.231187
    39  H   -0.011027   0.007518  -0.020802   0.004863   0.000497   0.001132
    40  H    0.000015   0.000990   0.001108   0.000313   0.004840  -0.020220
              7          8          9         10         11         12
     1  N   -0.115459  -0.003287  -0.120739  -0.004429   0.000741   0.289559
     2  C   -0.273106  -0.116001   0.255432   0.024943   0.009206  -0.092539
     3  C   -0.295091  -0.012883  -0.068007   0.097706   0.005015  -0.080058
     4  C   -4.741246  -0.332753  -0.043614  -0.039842   0.143149   0.045447
     5  C   -0.980894  -0.064310  -0.042318  -0.044452   0.045425   0.144327
     6  C    0.966635   0.045810   0.096818  -0.068026  -0.079039   0.005313
     7  C   10.166857   0.496648   0.024992   0.253655  -0.091877   0.009279
     8  N    0.496648   7.521708  -0.004405  -0.120876   0.289515   0.000744
     9  O    0.024992  -0.004405   8.501053   0.000043  -0.000033   0.004802
    10  O    0.253655  -0.120876   0.000043   8.501323   0.004799  -0.000033
    11  H   -0.091877   0.289515  -0.000033   0.004799   0.426867   0.000000
    12  H    0.009279   0.000744   0.004802  -0.000033   0.000000   0.426724
    13  C   -0.199263  -0.027375   0.002267  -0.042528   0.000060  -0.029561
    14  C    0.081623  -0.024570   0.026632  -0.024197  -0.000314  -0.116249
    15  C    0.019485   0.014853  -0.018141   0.017938  -0.000012   0.091150
    16  C    0.057186   0.000543  -0.004859   0.000263   0.000002   0.011674
    17  H    0.000019   0.000000   0.000001   0.000000   0.000000  -0.000013
    18  C   -0.006009   0.000137   0.000412   0.000082   0.000000   0.001598
    19  H   -0.000002   0.000000   0.000000   0.000000   0.000000   0.000000
    20  C    0.006739  -0.001973  -0.000841  -0.002235   0.000002  -0.005044
    21  H    0.000009   0.000000   0.000000   0.000000   0.000000   0.000000
    22  C   -0.373323  -0.091153  -0.003310   0.040388   0.000704  -0.003233
    23  C    0.169057   0.006443   0.000087   0.020017  -0.000085   0.004528
    24  H    0.000347  -0.000002   0.000000  -0.000024   0.000000   0.000000
    25  S   -0.092859   0.011306  -0.002536  -0.028632   0.000842  -0.002261
    26  C   -0.395213  -0.170485  -0.023823   0.026827  -0.117867  -0.000306
    27  C   -0.327952  -0.176265  -0.041694   0.002345  -0.030268   0.000060
    28  C   -0.011376  -0.053289  -0.002178  -0.000830  -0.005043   0.000001
    29  H   -0.000006  -0.000001   0.000000   0.000000   0.000000   0.000000
    30  C   -0.000829   0.010655   0.000081   0.000406   0.001615   0.000000
    31  H   -0.000007   0.000008   0.000000   0.000000   0.000000   0.000000
    32  C    0.240006   0.100736   0.000264  -0.004890   0.012139   0.000002
    33  H    0.000191   0.000476   0.000000   0.000001  -0.000013   0.000000
    34  C    0.377188   0.174851   0.017654  -0.018363   0.092251  -0.000013
    35  C    0.033417  -0.021918   0.019779   0.000078   0.004485  -0.000084
    36  H   -0.000075   0.000030  -0.000024   0.000000   0.000000   0.000000
    37  C    0.404776  -0.069824   0.040921  -0.003450  -0.002532   0.000739
    38  S    0.128742   0.040751  -0.029279  -0.002537  -0.002248   0.000856
    39  H    0.001039   0.000016   0.000274  -0.000004   0.000000   0.005170
    40  H    0.007558  -0.011204  -0.000004   0.000272   0.005229   0.000000
             13         14         15         16         17         18
     1  N   -0.176330  -0.169855   0.174651   0.101086   0.000471   0.010694
     2  C   -0.331023  -0.404577   0.383269   0.242748   0.000194  -0.000672
     3  C   -0.819241  -0.823954   0.785703  -0.501917  -0.002464   0.014209
     4  C   -1.414216  -1.054591   0.713465   0.083928  -0.000334  -0.010462
     5  C    0.106388  -0.477674   0.138912  -0.393337   0.000121   0.044140
     6  C   -0.029008   0.244806  -0.056301   0.005811   0.000012  -0.001275
     7  C   -0.199263   0.081623   0.019485   0.057186   0.000019  -0.006009
     8  N   -0.027375  -0.024570   0.014853   0.000543   0.000000   0.000137
     9  O    0.002267   0.026632  -0.018141  -0.004859   0.000001   0.000412
    10  O   -0.042528  -0.024197   0.017938   0.000263   0.000000   0.000082
    11  H    0.000060  -0.000314  -0.000012   0.000002   0.000000   0.000000
    12  H   -0.029561  -0.116249   0.091150   0.011674  -0.000013   0.001598
    13  C   25.013243   5.712158  -8.964709  -1.307343   0.012617  -0.498094
    14  C    5.712158  22.538842  -9.972312  -1.066661   0.014934  -1.208735
    15  C   -8.964709  -9.972312  21.189139  -4.013221   0.001584   0.272237
    16  C   -1.307343  -1.066661  -4.013221  11.903555   0.306393   0.452567
    17  H    0.012617   0.014934   0.001584   0.306393   0.600000  -0.036019
    18  C   -0.498094  -1.208735   0.272237   0.452567  -0.036019   5.969295
    19  H    0.018323   0.031539   0.034689  -0.040676  -0.005293   0.273747
    20  C    0.043429  -2.387303  -1.253795  -1.003819   0.020954   0.817679
    21  H    0.056190   0.092199  -0.025918   0.003992  -0.000173  -0.009017
    22  C   -5.979638  -3.128898   4.798419   0.815368  -0.014065   0.006563
    23  C   -4.772025  -1.813326   1.359171   0.463216   0.003065   0.047890
    24  H    0.078125   0.020076  -0.014235   0.001963   0.000000  -0.008444
    25  S   -0.523149  -0.012153   0.602607   0.123786  -0.000207  -0.016620
    26  C    0.014212   0.098539  -0.027824  -0.003325   0.000000   0.000104
    27  C    0.000924   0.014316  -0.004852  -0.001320   0.000000   0.000053
    28  C   -0.000192  -0.000504   0.000151  -0.000027   0.000000   0.000002
    29  H    0.000000   0.000000   0.000000   0.000000   0.000000   0.000000
    30  C    0.000053   0.000103  -0.000068  -0.000001   0.000000   0.000000
    31  H    0.000000   0.000000   0.000000   0.000000   0.000000   0.000000
    32  C   -0.001316  -0.003326   0.002219   0.000216   0.000000  -0.000001
    33  H    0.000000   0.000000   0.000000   0.000000   0.000000   0.000000
    34  C   -0.004826  -0.027906   0.009613   0.002222   0.000000  -0.000069
    35  C    0.000326   0.000653   0.000063   0.000410   0.000000  -0.000018
    36  H    0.000000   0.000000   0.000000   0.000000   0.000000   0.000000
    37  C    0.024888   0.081202  -0.036630  -0.012856   0.000002   0.000975
    38  S   -0.001851  -0.015586   0.006665   0.002829   0.000000  -0.000084
    39  H    0.035207   0.002613   0.207982   0.083242  -0.006361   0.008017
    40  H   -0.000004  -0.000004   0.000006   0.000000   0.000000   0.000000
             19         20         21         22         23         24
     1  N    0.000008  -0.053367  -0.000001  -0.071040  -0.021523   0.000030
     2  C   -0.000007  -0.011189  -0.000007   0.405622   0.033632  -0.000074
     3  C    0.000114   0.178693   0.000435   0.818554   0.127285  -0.009677
     4  C    0.000019  -0.242992   0.000117   0.505404   0.179969   0.001865
     5  C   -0.000036  -0.108425   0.000002  -0.646329   0.023803  -0.000398
     6  C   -0.000001  -0.011604   0.000001  -0.503646   0.024961   0.000084
     7  C   -0.000002   0.006739   0.000009  -0.373323   0.169057   0.000347
     8  N    0.000000  -0.001973   0.000000  -0.091153   0.006443  -0.000002
     9  O    0.000000  -0.000841   0.000000  -0.003310   0.000087   0.000000
    10  O    0.000000  -0.002235   0.000000   0.040388   0.020017  -0.000024
    11  H    0.000000   0.000002   0.000000   0.000704  -0.000085   0.000000
    12  H    0.000000  -0.005044   0.000000  -0.003233   0.004528   0.000000
    13  C    0.018323   0.043429   0.056190  -5.979638  -4.772025   0.078125
    14  C    0.031539  -2.387303   0.092199  -3.128898  -1.813326   0.020076
    15  C    0.034689  -1.253795  -0.025918   4.798419   1.359171  -0.014235
    16  C   -0.040676  -1.003819   0.003992   0.815368   0.463216   0.001963
    17  H   -0.005293   0.020954  -0.000173  -0.014065   0.003065   0.000000
    18  C    0.273747   0.817679  -0.009017   0.006563   0.047890  -0.008444
    19  H    0.604741  -0.008320  -0.005701   0.009402  -0.013952  -0.000004
    20  C   -0.008320  12.415662   0.224924  -2.295627  -0.205706  -0.064043
    21  H   -0.005701   0.224924   0.606449   0.007296  -0.063085   0.002464
    22  C    0.009402  -2.295627   0.007296  11.991518  -0.100565   0.041478
    23  C   -0.013952  -0.205706  -0.063085  -0.100565  10.602766   0.262838
    24  H   -0.000004  -0.064043   0.002464   0.041478   0.262838   0.549196
    25  S    0.000017  -0.417858   0.004423   0.341786  -0.378795   0.003732
    26  C    0.000000  -0.000508   0.000000   0.080961   0.000675   0.000000
    27  C    0.000000  -0.000192   0.000000   0.024919   0.000326   0.000000
    28  C    0.000000  -0.000010   0.000000  -0.002676   0.000054   0.000000
    29  H    0.000000   0.000000   0.000000   0.000000   0.000000   0.000000
    30  C    0.000000   0.000002   0.000000   0.000975  -0.000018   0.000000
    31  H    0.000000   0.000000   0.000000   0.000000   0.000000   0.000000
    32  C    0.000000  -0.000028   0.000000  -0.012798   0.000407   0.000000
    33  H    0.000000   0.000000   0.000000   0.000002   0.000000   0.000000
    34  C    0.000000   0.000151   0.000000  -0.036478   0.000044   0.000000
    35  C    0.000000   0.000054   0.000000  -0.000610  -0.000052   0.000000
    36  H    0.000000   0.000000   0.000000  -0.000001   0.000000   0.000000
    37  C    0.000000  -0.002665   0.000000   0.043575  -0.000641  -0.000001
    38  S    0.000000   0.000328   0.000000  -0.007045  -0.000217   0.000000
    39  H   -0.000179  -0.019465   0.000018  -0.021802   0.006951   0.000002
    40  H    0.000000   0.000000   0.000000  -0.000088   0.000002   0.000000
             25         26         27         28         29         30
     1  N    0.040679  -0.024606  -0.027617  -0.001976   0.000000   0.000135
     2  C    0.129532   0.076744  -0.208018   0.006501   0.000009  -0.006065
     3  C   -0.226312   0.241342  -0.027518  -0.011217   0.000001  -0.001268
     4  C   -0.062458  -0.500001   0.099610  -0.109173   0.000002   0.044711
     5  C    0.016365  -1.039776  -1.402636  -0.238429   0.000116  -0.010744
     6  C   -0.023812  -0.796355  -0.806589   0.174205   0.000437   0.015259
     7  C   -0.092859  -0.395213  -0.327952  -0.011376  -0.000006  -0.000829
     8  N    0.011306  -0.170485  -0.176265  -0.053289  -0.000001   0.010655
     9  O   -0.002536  -0.023823  -0.041694  -0.002178   0.000000   0.000081
    10  O   -0.028632   0.026827   0.002345  -0.000830   0.000000   0.000406
    11  H    0.000842  -0.117867  -0.030268  -0.005043   0.000000   0.001615
    12  H   -0.002261  -0.000306   0.000060   0.000001   0.000000   0.000000
    13  C   -0.523149   0.014212   0.000924  -0.000192   0.000000   0.000053
    14  C   -0.012153   0.098539   0.014316  -0.000504   0.000000   0.000103
    15  C    0.602607  -0.027824  -0.004852   0.000151   0.000000  -0.000068
    16  C    0.123786  -0.003325  -0.001320  -0.000027   0.000000  -0.000001
    17  H   -0.000207   0.000000   0.000000   0.000000   0.000000   0.000000
    18  C   -0.016620   0.000104   0.000053   0.000002   0.000000   0.000000
    19  H    0.000017   0.000000   0.000000   0.000000   0.000000   0.000000
    20  C   -0.417858  -0.000508  -0.000192  -0.000010   0.000000   0.000002
    21  H    0.004423   0.000000   0.000000   0.000000   0.000000   0.000000
    22  C    0.341786   0.080961   0.024919  -0.002676   0.000000   0.000975
    23  C   -0.378795   0.000675   0.000326   0.000054   0.000000  -0.000018
    24  H    0.003732   0.000000   0.000000   0.000000   0.000000   0.000000
    25  S   16.299111  -0.015702  -0.001846   0.000329   0.000000  -0.000083
    26  C   -0.015702  22.404158   5.647603  -2.413583   0.092273  -1.198986
    27  C   -0.001846   5.647603  24.934307   0.019334   0.056437  -0.493560
    28  C    0.000329  -2.413583   0.019334  12.369638   0.224674   0.818634
    29  H    0.000000   0.092273   0.056437   0.224674   0.606471  -0.009321
    30  C   -0.000083  -1.198986  -0.493560   0.818634  -0.009321   5.966461
    31  H    0.000000   0.031413   0.018548  -0.008670  -0.005698   0.274087
    32  C    0.002797  -1.067482  -1.307578  -1.008685   0.004002   0.452026
    33  H    0.000000   0.014990   0.012747   0.020931  -0.000173  -0.036139
    34  C    0.006610  -9.866526  -8.899783  -1.212234  -0.025958   0.263597
    35  C   -0.000234  -1.812553  -4.751521  -0.174511  -0.062899   0.049327
    36  H    0.000000   0.020364   0.078302  -0.065081   0.002465  -0.008524
    37  C   -0.006955  -3.049699  -5.915929  -2.265060   0.007319   0.000859
    38  S   -0.000613  -0.000934  -0.520048  -0.421373   0.004461  -0.016975
    39  H    0.000955  -0.000004  -0.000004   0.000000   0.000000   0.000000
    40  H    0.000119   0.002186   0.034683  -0.019427   0.000018   0.007943
             31         32         33         34         35         36
     1  N    0.000000   0.000585   0.000000   0.015053   0.006486  -0.000002
     2  C   -0.000002   0.058256   0.000019   0.026051   0.170914   0.000356
     3  C   -0.000001   0.006160   0.000012  -0.056356   0.023695   0.000085
     4  C   -0.000036  -0.389128   0.000125   0.151462   0.023287  -0.000393
     5  C    0.000018   0.086381  -0.000330   0.702739   0.172370   0.001924
     6  C    0.000112  -0.504964  -0.002465   0.775881   0.131825  -0.009709
     7  C   -0.000007   0.240006   0.000191   0.377188   0.033417  -0.000075
     8  N    0.000008   0.100736   0.000476   0.174851  -0.021918   0.000030
     9  O    0.000000   0.000264   0.000000   0.017654   0.019779  -0.000024
    10  O    0.000000  -0.004890   0.000001  -0.018363   0.000078   0.000000
    11  H    0.000000   0.012139  -0.000013   0.092251   0.004485   0.000000
    12  H    0.000000   0.000002   0.000000  -0.000013  -0.000084   0.000000
    13  C    0.000000  -0.001316   0.000000  -0.004826   0.000326   0.000000
    14  C    0.000000  -0.003326   0.000000  -0.027906   0.000653   0.000000
    15  C    0.000000   0.002219   0.000000   0.009613   0.000063   0.000000
    16  C    0.000000   0.000216   0.000000   0.002222   0.000410   0.000000
    17  H    0.000000   0.000000   0.000000   0.000000   0.000000   0.000000
    18  C    0.000000  -0.000001   0.000000  -0.000069  -0.000018   0.000000
[...]
 ! D98   D(26,27,35,38)         -0.0894         calculate D2E/DX2 analytically  !
 ! D99   D(28,27,35,36)         -1.3736         calculate D2E/DX2 analytically  !
 ! D100  D(28,27,35,38)       -178.8665         calculate D2E/DX2 analytically  !
 ! D101  D(27,28,30,31)       -179.8633         calculate D2E/DX2 analytically  !
 ! D102  D(27,28,30,32)         -0.9257         calculate D2E/DX2 analytically  !
 ! D103  D(29,28,30,31)         -0.3879         calculate D2E/DX2 analytically  !
 ! D104  D(29,28,30,32)        178.5497         calculate D2E/DX2 analytically  !
 ! D105  D(28,30,32,33)       -177.6155         calculate D2E/DX2 analytically  !
 ! D106  D(28,30,32,34)          1.4434         calculate D2E/DX2 analytically  !
 ! D107  D(31,30,32,33)          1.327          calculate D2E/DX2 analytically  !
 ! D108  D(31,30,32,34)       -179.6141         calculate D2E/DX2 analytically  !
 ! D109  D(30,32,34,26)          0.4402         calculate D2E/DX2 analytically  !
 ! D110  D(30,32,34,40)       -176.745          calculate D2E/DX2 analytically  !
 ! D111  D(33,32,34,26)        179.4994         calculate D2E/DX2 analytically  !
 ! D112  D(33,32,34,40)          2.3142         calculate D2E/DX2 analytically  !
 ! D113  D(27,35,38,37)         -0.9667         calculate D2E/DX2 analytically  !
 ! D114  D(36,35,38,37)       -178.6738         calculate D2E/DX2 analytically  !
 ! D115  D(6,37,38,35)        -175.6883         calculate D2E/DX2 analytically  !
 ! D116  D(26,37,38,35)          1.7483         calculate D2E/DX2 analytically  !
 --------------------------------------------------------------------------------
 Trust Radius=3.00D-01 FncErr=1.00D-07 GrdErr=1.00D-07
 Number of steps in this run=   2 maximum allowed number of steps=   2.
 GradGradGradGradGradGradGradGradGradGradGradGradGradGradGradGradGradGrad

                          Input orientation:                          
 ---------------------------------------------------------------------
 Center     Atomic      Atomic             Coordinates (Angstroms)
 Number     Number       Type             X           Y           Z
 ---------------------------------------------------------------------
      1          7           0        1.486243   -0.518940   -0.041965
      2          6           0        0.838706   -0.402706    1.208671
      3          6           0        2.443417    0.486708   -0.277228
      4          6           0        2.450983    1.257512    0.902831
      5          6           0        1.500167    0.732409    1.823198
      6          6           0        1.574225    1.443886    3.037852
      7          6           0        3.147515    2.361217    1.535527
      8          7           0        2.596623    2.390945    2.836464
      9          8           0       -0.082179   -1.148512    1.567997
     10          8           0        4.005937    3.162981    1.143620
     11          1           0        2.730153    3.207404    3.412779
     12          1           0        1.066385   -1.078806   -0.767810
     13          6           0        4.061864    0.175190   -3.671402
     14          6           0        3.310724   -0.361480   -2.550414
     15          6           0        2.881033   -1.714003   -2.612855
     16          6           0        3.125681   -2.480851   -3.739039
     17          1           0        2.797246   -3.516148   -3.765118
     18          6           0        3.819460   -1.934481   -4.854455
     19          1           0        3.994318   -2.553717   -5.731025
     20          6           0        4.287248   -0.640235   -4.823658
     21          1           0        4.837541   -0.228216   -5.666098
     22          6           0        3.171646    0.583222   -1.485788
     23          6           0        4.504488    1.473591   -3.448004
     24          1           0        5.113621    2.085415   -4.099413
     25         16           0        4.026468    2.069178   -1.896523
     26          6           0        1.134042    1.912528    5.532837
     27          6           0        0.080356    1.648310    6.496466
     28          6           0        0.196792    2.160337    7.825975
     29          1           0       -0.601805    1.971554    8.539341
     30          6           0        1.314768    2.873967    8.194497
     31          1           0        1.402038    3.260546    9.207090
     32          6           0        2.372091    3.093405    7.268314
     33          1           0        3.264113    3.625272    7.587350
     34          6           0        2.285521    2.620005    5.970364
     35          6           0       -0.944262    0.869940    5.970964
     36          1           0       -1.821946    0.499331    6.482856
     37          6           0        0.858242    1.337365    4.252726
     38         16           0       -0.661622    0.446714    4.318151
     39          1           0        2.396548   -2.176737   -1.760686
     40          1           0        3.131000    2.757974    5.306156
 ---------------------------------------------------------------------
                    Distance matrix (angstroms):
                    1          2          3          4          5
     1  N    0.000000
     2  C    1.413119   0.000000
     3  C    1.408140   2.360943   0.000000
     4  C    2.231399   2.334374   1.409516   0.000000
     5  C    2.246086   1.450400   2.315574   1.423679   0.000000
     6  C    3.653177   2.701258   3.558292   2.315546   1.409634
     7  C    3.680164   3.616173   2.701040   1.450388   2.334422
     8  N    4.240958   3.680281   3.653035   2.246067   2.231516
     9  O    2.334157   1.238294   3.529509   3.556446   2.471196
    10  O    4.616385   4.769665   3.409210   2.471168   3.556457
    11  H    5.231463   4.633418   4.593534   3.190589   3.188296
    12  H    1.008256   2.101291   2.141896   3.188500   3.190923
    13  C    4.504271   5.876890   3.773173   4.968900   6.087974
    14  C    3.105776   4.499255   2.576630   3.909628   4.858312
    15  C    3.159603   4.527103   3.238795   4.623299   5.250742
    16  C    4.495021   5.833419   4.610426   5.998127   6.626147
    17  H    4.956193   6.186111   5.321036   6.685617   7.138762
    18  C    5.532424   6.927678   5.357859   6.723681   7.555295
    19  H    6.541877   7.921118   6.433768   7.804831   8.607305
    20  C    5.543007   6.952543   5.033859   6.306028   7.337075
    21  H    6.553365   7.955097   5.939938   7.145199   8.255327
    22  C    2.477896   3.697942   1.414302   2.584477   3.710187
    23  C    4.968006   6.216355   3.908423   4.815946   6.112354
    24  H    6.033525   7.255440   4.928991   5.726911   7.068593
    25  S    4.073141   5.090606   2.762676   3.313206   4.690999
    26  C    6.092167   4.913852   6.124073   4.858017   3.910006
    27  C    7.030261   5.722110   7.267483   6.087803   4.969323
    28  C    8.411045   7.125304   8.573812   7.336647   6.306432
    29  H    9.176127   7.839062   9.445106   8.255038   7.145651
    30  C    8.909575   7.730782   8.873724   7.554622   6.724142
    31  H    9.991828   8.815411   9.936344   8.606576   7.805316
    32  C    8.202069   7.161936   7.983430   6.625413   5.998653
    33  H    8.862379   7.924314   8.507392   7.137946   6.686225
    34  C    6.829342   5.822695   6.603658   5.250110   4.623720
    35  C    6.632621   5.241950   7.117804   6.112600   4.816441
    36  H    7.386086   5.975765   7.993260   7.068906   5.727405
    37  C    4.720659   3.506352   4.874103   3.710121   2.584695
    38  S    4.955444   3.555470   5.546204   4.691494   3.313570
    39  H    2.555572   3.793565   3.049063   4.346418   4.702218
    40  H    6.484272   5.659849   6.066761   4.701391   4.346668
                    6          7          8          9         10
     6  C    0.000000
     7  C    2.360872   0.000000
     8  N    1.408110   1.413083   0.000000
     9  O    3.409499   4.769715   4.616573   0.000000
    10  O    3.529394   1.238267   2.334079   5.956657   0.000000
    11  H    2.141666   2.101024   1.008253   5.503312   2.603590
    12  H    4.594011   4.633596   5.231786   2.603853   5.503388
    13  C    7.267189   5.720739   7.029141   6.810036   5.666962
    14  C    6.124010   4.912701   6.091325   5.393749   5.152769
    15  C    6.603825   5.821298   6.828365   5.155573   6.257914
    16  C    7.983535   7.160108   8.200704   6.342722   7.514523
    17  H    8.507533   7.922307   8.860862   6.506835   8.376599
    18  C    8.873723   7.728932   8.908135   7.555688   7.873741
    19  H    9.936341   8.813422   9.990250   8.477508   8.941001
    20  C    8.573646   7.123689   8.409741   7.759091   7.081808
    21  H    9.444781   7.837394   9.174708   8.796745   7.652714
    22  C    4.873994   3.505736   4.720209   4.786636   3.776901
    23  C    7.117138   5.240691   6.631442   7.285136   4.917886
    24  H    7.992461   5.974461   7.384783   8.341113   5.466032
    25  S    5.545497   3.554829   4.954710   6.263977   3.230989
    26  C    2.576497   4.498209   3.104585   5.154524   5.392275
    27  C    3.772989   5.875936   4.503190   5.669078   6.808625
    28  C    5.033562   6.951033   5.541443   7.084391   7.756852
    29  H    5.939690   7.953782   6.551995   7.655355   8.794741
    30  C    5.357559   6.925587   5.530369   7.876694   7.552535
    31  H    6.433459   7.918861   6.539734   8.944185   8.474040
    32  C    4.610239   5.831143   4.492789   7.517374   6.339256
    33  H    5.320912   6.183526   4.953789   8.379696   6.502744
    34  C    3.238646   4.525239   3.157623   6.260077   5.152874
    35  C    3.908368   6.216080   4.967536   4.919701   7.284624
    36  H    4.928916   7.255221   6.033086   5.467907   8.340665
    37  C    1.414178   3.697596   2.477458   3.777797   4.786168
    38  S    2.762704   5.090958   4.073278   3.231695   6.264333
    39  H    6.067215   5.658798   6.483636   4.275683   6.287902
    40  H    3.048865   3.791482   2.553360   6.289594   4.272733
                   11         12         13         14         15
    11  H    0.000000
    12  H    6.214261   0.000000
    13  C    7.820064   4.356174   0.000000
    14  C    6.973785   2.954538   1.452185   0.000000
    15  C    7.781471   2.664698   2.466564   1.420512   0.000000
    16  C    9.146649   3.877452   2.817014   2.436966   1.384268
    17  H    9.835287   4.233246   3.903079   3.419225   2.140667
    18  C    9.796568   5.001227   2.430861   2.835798   2.440087
    19  H   10.881074   5.948248   3.419582   3.922943   3.415773
    20  C    9.223219   5.197712   1.429479   2.489767   2.831619
    21  H    9.933307   6.240060   2.177894   3.472234   3.918900
    22  C    5.574693   2.776680   2.394972   1.430117   2.575264
    23  C    7.295528   5.051606   1.389844   2.366056   3.673395
    24  H    7.960705   6.123071   2.222239   3.411324   4.650794
    25  S    5.582533   4.466081   2.595889   2.616861   4.017165
    26  C    2.952781   6.975013   9.813689   8.674561   9.086033
    27  C    4.354460   7.821708  11.018532   9.814305  10.105873
    28  C    5.195244   9.225040  12.291024  11.123200  11.453595
    29  H    6.237860   9.935321  13.193899  11.988895  12.250917
    30  C    4.997931   9.798421  12.475155  11.397591  11.844894
    31  H    5.944808  10.883072  13.507393  12.449942  12.909093
    32  C    3.873803   9.148305  11.447650  10.451061  11.000350
    33  H    4.229275   9.837025  11.802499  10.893605  11.519497
    34  C    2.661574   7.782704  10.104265   9.085370   9.633790
    35  C    5.050680   7.297355  10.886653   9.603915   9.746363
    36  H    6.122143   7.962733  11.740240  10.425222  10.476107
    37  C    2.776078   5.575571   8.625872   7.428557   7.780665
    38  S    4.466010   5.583925   9.285366   7.975582   8.078240
    39  H    7.474290   1.990123   3.457698   2.180492   1.083993
    40  H    1.986842   7.475063   9.387962   8.455116   9.097901
                   16         17         18         19         20
    16  C    0.000000
    17  H    1.086458   0.000000
    18  C    1.422674   2.175603   0.000000
    19  H    2.174361   2.494804   1.087383   0.000000
    20  C    2.431769   3.407564   1.376534   2.137880   0.000000
    21  H    3.423213   4.311268   2.146298   2.474509   1.087330
    22  C    3.803656   4.705355   4.255163   5.342210   3.725962
    23  C    4.198025   5.283250   3.749976   4.657430   2.531378
    24  H    4.993252   6.070821   4.290048   5.043465   2.938808
    25  S    4.990897   6.016519   4.982118   6.006296   3.997130
    26  C   10.451607  10.894436  11.397665  12.450024  11.122783
    27  C   11.449434  11.804796  12.476405  13.508799  12.291484
    28  C   12.801116  13.165799  13.808858  14.847079  13.586326
    29  H   13.582219  13.894895  14.635520  15.660324  14.466998
    30  C   13.204649  13.640517  14.130457  15.184199  13.807883
    31  H   14.266634  14.701985  15.184179  16.238006  14.845957
    32  C   12.361312  12.868704  13.203637  14.265497  12.799362
    33  H   12.868217  13.419999  13.638834  14.700075  13.163377
    34  C   10.999869  11.519281  11.843691  12.907745  11.451943
    35  C   11.048819  11.314943  12.155144  13.154753  12.090211
    36  H   11.740853  11.936581  12.895096  13.868269  12.901865
    37  C    9.142667   9.570901  10.120007  11.164711   9.902007
    38  S    9.371906   9.644028  10.482695  11.474594  10.452055
    39  H    2.130258   2.443835   3.413909   4.296344   3.913743
    40  H   10.452792  11.034673  11.212989  12.279199  10.746993
                   21         22         23         24         25
    21  H    0.000000
    22  C    4.572595   0.000000
    23  C    2.815494   2.533676   0.000000
    24  H    2.807777   3.585929   1.081530   0.000000
    25  S    4.488380   1.762807   1.729255   2.456602   0.000000
    26  C   11.988112   7.428322   9.602504  10.423396   7.974086
    27  C   13.193942   8.625941  10.885585  11.738717   9.283921
    28  C   14.466436   9.901817  12.088444  12.899446  10.449961
    29  H   15.369449  10.801370  13.039119  13.871451  11.416553
    30  C   14.633850  10.119458  12.152498  12.891599  10.479966
    31  H   15.658412  11.164104  13.151799  13.864336  11.471582
    32  C   13.579786   9.141914  11.045831  11.737003   9.369110
    33  H   13.891686   9.569977  11.311380  11.931986   9.640874
    34  C   12.248772   7.779968   9.743908  10.473030   8.076027
    35  C   13.040568   8.522092  10.898176  11.814729   9.383159
    36  H   13.873542   9.404376  11.815030  12.751556  10.338392
    37  C   10.801340   6.233066   8.521439   9.403514   6.956038
    38  S   11.418474   6.956888   9.383834  10.338964   7.951902
    39  H    5.000742   2.879882   4.540412   5.569387   4.550042
    40  H   11.498694   7.131739   8.953850   9.635759   7.290739
                   26         27         28         29         30
    26  C    0.000000
    27  C    1.452118   0.000000
    28  C    2.489645   1.429448   0.000000
    29  H    3.472134   2.177881   1.087330   0.000000
    30  C    2.835747   2.430908   1.376570   2.146280   0.000000
    31  H    3.922896   3.419595   2.137886   2.474425   1.087384
    32  C    2.437030   2.817108   2.431775   3.423174   1.422639
    33  H    3.419316   3.903167   3.407556   4.311194   2.175554
    34  C    1.420513   2.466521   2.831497   3.918773   2.440005
    35  C    2.366071   1.389911   2.531441   2.815562   3.750125
    36  H    3.411382   2.222407   2.939084   2.808080   4.290406
    37  C    1.430231   2.395028   3.725977   4.572635   4.255246
    38  S    2.616961   2.596039   3.997275   4.488558   4.982342
    39  H    8.456446   9.390223  10.749568  11.501695  11.215415
    40  H    2.180367   3.457545   3.913596   5.000577   3.413893
                   31         32         33         34         35
    31  H    0.000000
    32  C    2.174349   0.000000
    33  H    2.494775   1.086448   0.000000
    34  C    3.415733   1.384296   2.140759   0.000000
    35  C    4.657535   4.198227   5.283463   3.673449   0.000000
    36  H    5.043792   4.993607   6.071195   4.650935   1.081533
    37  C    5.342290   3.803838   4.705577   2.575378   2.533742
    38  S    6.006502   4.991177   6.016834   4.017295   1.729392
    39  H   12.281906  10.454560  11.036383   9.098912   8.956655
    40  H    4.296414   2.130380   2.444130   1.083993   4.540308
                   36         37         38         39         40
    36  H    0.000000
    37  C    3.585970   0.000000
    38  S    2.456637   1.762818   0.000000
    39  H    9.639139   7.132771   7.292953   0.000000
    40  H    5.569359   2.879804   4.549951   8.650494   0.000000
 Symmetry turned off by external request.
 Stoichiometry    C22H12N2O2S2(1-,2)
 Framework group  C1[X(C22H12N2O2S2)]
 Deg. of freedom   114
 Full point group                 C1      NOp   1
 Rotational constants (GHZ):      0.4468242      0.0720738      0.0633802
 Standard basis: 6-31+G(d,p) (6D, 7F)
 Integral buffers will be    131072 words long.
 Raffenetti 2 integral format.
 Two-electron integral symmetry is turned off.
   600 basis functions,  1028 primitive gaussians,   600 cartesian basis functions
   104 alpha electrons      103 beta electrons
       nuclear repulsion energy      2619.0438395485 Hartrees.
 NAtoms=   40 NActive=   40 NUniq=   40 SFac= 7.50D-01 NAtFMM=   80 NAOKFM=F Big=F
 One-electron integrals computed using PRISM.
 NBasis=   600 RedAO= T  NBF=   600
 NBsUse=   591 1.00D-06 NBFU=   591
 Initial guess read from the checkpoint file:  /home/nathalia.rosa/DPP-SUB/DPP-SU
 B-4b/DPP-SUB-4B-ANION.chk
 B after Tr=     0.000000    0.000000    0.000000
         Rot=    1.000000    0.000000    0.000000    0.000000 Ang=   0.00 deg.
 Initial guess <Sx>= 0.0000 <Sy>= 0.0000 <Sz>= 0.5000 <S**2>= 0.8130 S= 0.5310
 Requested convergence on RMS density matrix=1.00D-08 within 128 cycles.
 Requested convergence on MAX density matrix=1.00D-06.
 Requested convergence on             energy=1.00D-06.
 No special actions if energy rises.
 SCF Done:  E(UB3LYP) =  -1902.02601535     A.U. after    7 cycles
             Convg  =    0.9422D-08             -V/T =  2.0070
 <Sx>= 0.0000 <Sy>= 0.0000 <Sz>= 0.5000 <S**2>= 0.8130 S= 0.5310
 <L.S>= 0.000000000000E+00
 Annihilation of the first spin contaminant:
 S**2 before annihilation     0.8130,   after     0.7522
 DiagDN has N=   600 LTot=  1832 but NE2=     3 cannot use DSYEVD.
 Range of M.O.s used for correlation:     1   591
 NBasis=   600 NAE=   104 NBE=   103 NFC=     0 NFV=     0
 NROrb=    591 NOA=   104 NOB=   103 NVA=   487 NVB=   488

 **** Warning!!: The largest alpha MO coefficient is  0.13844918D+03


 **** Warning!!: The smallest alpha delta epsilon is  0.53680333D-01


 **** Warning!!: The largest beta MO coefficient is  0.13813925D+03


 **** Warning!!: The smallest beta delta epsilon is  0.74647525D-01

 Symmetrizing basis deriv contribution to polar:
 IMax=3 JMax=2 DiffMx= 0.00D+00
 G2DrvN: will do    11 centers at a time, making    4 passes doing MaxLOS=2.
 Calling FoFCou, ICntrl=  3107 FMM=F I1Cent=   0 AccDes= 0.00D+00.
 Calling FoFCou, ICntrl=  3107 FMM=F I1Cent=   0 AccDes= 0.00D+00.
 Calling FoFCou, ICntrl=  3107 FMM=F I1Cent=   0 AccDes= 0.00D+00.
 Calling FoFCou, ICntrl=  3107 FMM=F I1Cent=   0 AccDes= 0.00D+00.
 FoFDir/FoFCou used for L=0 through L=2.
 End of G2Drv Frequency-dependent properties file   721 does not exist.
 End of G2Drv Frequency-dependent properties file   722 does not exist.
          IDoAtm=1111111111111111111111111111111111111111
          Differentiating once with respect to electric field.
                with respect to dipole field.
          Differentiating once with respect to nuclear coordinates.
          There are   123 degrees of freedom in the 1st order CPHF.  IDoFFX=5.
    123 vectors produced by pass  0 Test12= 1.01D-13 1.00D-09 XBig12= 1.17D+04 9.07D+01.
 AX will form    31 AO Fock derivatives at one time.
