 Entering Gaussian System, Link 0=g09
 Initial command:
 /apps/software//g09/l1.exe /scratch/nathalia.rosa/82519.cluster.abaxnet/Gau-18830.inp -scrdir=/scratch/nathalia.rosa/82519.cluster.abaxnet/
 Entering Link 1 = /apps/software//g09/l1.exe PID=     18831.
  
 Copyright (c) 1988,1990,1992,1993,1995,1998,2003,2009, Gaussian, Inc.
                  All Rights Reserved.
  
 This is part of the Gaussian(R) 09 program.  It is based on
 the Gaussian(R) 03 system (copyright 2003, Gaussian, Inc.),
 the Gaussian(R) 98 system (copyright 1998, Gaussian, Inc.),
 the Gaussian(R) 94 system (copyright 1995, Gaussian, Inc.),
 the Gaussian 92(TM) system (copyright 1992, Gaussian, Inc.),
 the Gaussian 90(TM) system (copyright 1990, Gaussian, Inc.),
 the Gaussian 88(TM) system (copyright 1988, Gaussian, Inc.),
 the Gaussian 86(TM) system (copyright 1986, Carnegie Mellon
 University), and the Gaussian 82(TM) system (copyright 1983,
 Carnegie Mellon University). Gaussian is a federally registered
 trademark of Gaussian, Inc.
  
 This software contains proprietary and confidential information,
 including trade secrets, belonging to Gaussian, Inc.
  
 This software is provided under written license and may be
 used, copied, transmitted, or stored only in accord with that
 written license.
  
 The following legend is applicable only to US Government
 contracts under FAR:
  
                    RESTRICTED RIGHTS LEGEND
  
 Use, reproduction and disclosure by the US Government is
 subject to restrictions as set forth in subparagraphs (a)
 and (c) of the Commercial Computer Software - Restricted
 Rights clause in FAR 52.227-19.
  
 Gaussian, Inc.
 340 Quinnipiac St., Bldg. 40, Wallingford CT 06492
  
  
 ---------------------------------------------------------------
 Warning -- This program may not be used in any manner that
 competes with the business of Gaussian, Inc. or will provide
 assistance to any competitor of Gaussian, Inc.  The licensee
 of this program is prohibited from giving any competitor of
 Gaussian, Inc. access to this program.  By using this program,
 the user acknowledges that Gaussian, Inc. is engaged in the
 business of creating and licensing software in the field of
 computational chemistry and represents and warrants to the
 licensee that it is not a competitor of Gaussian, Inc. and that
 it will not use this program in any manner prohibited above.
 ---------------------------------------------------------------
  

 Cite this work as:
 Gaussian 09, Revision A.02,
 M. J. Frisch, G. W. Trucks, H. B. Schlegel, G. E. Scuseria, 
 M. A. Robb, J. R. Cheeseman, G. Scalmani, V. Barone, B. Mennucci, 
 G. A. Petersson, H. Nakatsuji, M. Caricato, X. Li, H. P. Hratchian, 
 A. F. Izmaylov, J. Bloino, G. Zheng, J. L. Sonnenberg, M. Hada, 
 M. Ehara, K. Toyota, R. Fukuda, J. Hasegawa, M. Ishida, T. Nakajima, 
 Y. Honda, O. Kitao, H. Nakai, T. Vreven, J. A. Montgomery, Jr., 
 J. E. Peralta, F. Ogliaro, M. Bearpark, J. J. Heyd, E. Brothers, 
 K. N. Kudin, V. N. Staroverov, R. Kobayashi, J. Normand, 
 K. Raghavachari, A. Rendell, J. C. Burant, S. S. Iyengar, J. Tomasi, 
 M. Cossi, N. Rega, J. M. Millam, M. Klene, J. E. Knox, J. B. Cross, 
 V. Bakken, C. Adamo, J. Jaramillo, R. Gomperts, R. E. Stratmann, 
 O. Yazyev, A. J. Austin, R. Cammi, C. Pomelli, J. W. Ochterski, 
 R. L. Martin, K. Morokuma, V. G. Zakrzewski, G. A. Voth, 
 P. Salvador, J. J. Dannenberg, S. Dapprich, A. D. Daniels, 
 O. Farkas, J. B. Foresman, J. V. Ortiz, J. Cioslowski, 
 and D. J. Fox, Gaussian, Inc., Wallingford CT, 2009.
 
 ******************************************
 Gaussian 09:  EM64L-G09RevA.02 11-Jun-2009
                 6-Sep-2023 
 ******************************************
 %mem=4Gb
 %chk=/home/nathalia.rosa/DPP-SUB/DPP-SUB-4b/DPP-SUB-4B-TD-DFT.chk
 ----------------------------------------------------------------
 # td=(nstates=10) cam-b3lyp/6-31+g(d,p) nosymm geom=connectivity
 ----------------------------------------------------------------
 1/38=1,57=2/1;
 2/12=2,15=1,17=6,18=5,40=1/2;
 3/5=1,6=6,7=111,11=2,16=1,25=1,30=1,74=-40/1,2,8,3;
 4//1;
 5/5=2,38=5/2;
 8/6=1,10=2,108=10/1;
 9/41=10,42=1/14;
 6/7=2,8=2,9=2,10=2/1;
 99/5=1,9=1/99;
 -------
 Energy:
 -------
 Symbolic Z-matrix:
 Charge =  0 Multiplicity = 1
 N                     1.35556  -0.43339  -0.0764 
 C                     0.70668  -0.29355   1.18257 
 C                     2.30566   0.56331  -0.31424 
 C                     2.32264   1.36237   0.82476 
 C                     1.37679   0.85587   1.76873 
 C                     1.49636   1.56305   2.96113 
 C                     3.04613   2.46394   1.43868 
 N                     2.51177   2.50109   2.75733 
 O                    -0.20697  -1.01892   1.56215 
 O                     3.89652   3.24599   1.02618 
 H                     2.67343   3.30357   3.34788 
 H                     0.95286  -1.01975  -0.79255 
 C                     4.06378   0.15125  -3.62542 
 C                     3.29088  -0.35856  -2.51211 
 C                     2.9253   -1.7381   -2.5179 
 C                     3.26829  -2.53248  -3.58809 
 H                     2.99385  -3.58317  -3.58046 
 C                     3.99376  -2.01295  -4.70184 
 H                     4.24119  -2.67159  -5.52872 
 C                     4.39553  -0.70114  -4.72138 
 H                     4.96856  -0.30325  -5.55377 
 C                     3.06155   0.6331   -1.52762 
 C                     4.41218   1.48838  -3.45473 
 H                     4.99112   2.10816  -4.12645 
 S                     3.83619   2.12962  -1.98382 
 C                     1.15194   1.91168   5.49328 
 C                     0.12406   1.63018   6.47348 
 C                     0.29551   2.03301   7.83212 
 H                    -0.48743   1.82288   8.55488 
 C                     1.45101   2.67141   8.2062 
 H                     1.59355   2.98201   9.23671 
 C                     2.48618   2.9136    7.25415 
 H                     3.40622   3.38717   7.58364 
 C                     2.35229   2.54494   5.93501 
 C                    -0.95629   0.94744   5.921 
 H                    -1.84975   0.60903   6.42866 
 C                     0.7995    1.44032   4.20521 
 S                    -0.74906   0.63587   4.25777 
 H                     2.41751  -2.18145  -1.66941 
 H                     3.18058   2.70113   5.25393 
 
                          Input orientation:                          
 ---------------------------------------------------------------------
 Center     Atomic      Atomic             Coordinates (Angstroms)
 Number     Number       Type             X           Y           Z
 ---------------------------------------------------------------------
      1          7           0        1.355555   -0.433386   -0.076395
      2          6           0        0.706675   -0.293545    1.182565
      3          6           0        2.305660    0.563309   -0.314243
      4          6           0        2.322644    1.362367    0.824757
      5          6           0        1.376792    0.855873    1.768728
      6          6           0        1.496355    1.563046    2.961134
      7          6           0        3.046131    2.463938    1.438682
      8          7           0        2.511768    2.501091    2.757331
      9          8           0       -0.206973   -1.018922    1.562151
     10          8           0        3.896520    3.245991    1.026185
     11          1           0        2.673427    3.303566    3.347883
     12          1           0        0.952863   -1.019753   -0.792550
     13          6           0        4.063776    0.151248   -3.625415
     14          6           0        3.290879   -0.358562   -2.512107
     15          6           0        2.925297   -1.738098   -2.517900
     16          6           0        3.268285   -2.532478   -3.588085
     17          1           0        2.993851   -3.583169   -3.580458
     18          6           0        3.993762   -2.012953   -4.701844
     19          1           0        4.241187   -2.671592   -5.528724
     20          6           0        4.395530   -0.701136   -4.721379
     21          1           0        4.968556   -0.303253   -5.553767
     22          6           0        3.061554    0.633096   -1.527618
     23          6           0        4.412177    1.488380   -3.454733
     24          1           0        4.991121    2.108156   -4.126452
     25         16           0        3.836186    2.129625   -1.983818
     26          6           0        1.151938    1.911681    5.493276
     27          6           0        0.124056    1.630182    6.473475
     28          6           0        0.295510    2.033012    7.832117
     29          1           0       -0.487427    1.822882    8.554882
     30          6           0        1.451014    2.671414    8.206196
     31          1           0        1.593551    2.982011    9.236713
     32          6           0        2.486178    2.913598    7.254151
     33          1           0        3.406220    3.387173    7.583641
     34          6           0        2.352291    2.544937    5.935013
     35          6           0       -0.956291    0.947442    5.921001
     36          1           0       -1.849749    0.609025    6.428661
     37          6           0        0.799499    1.440322    4.205208
     38         16           0       -0.749063    0.635874    4.257771
     39          1           0        2.417505   -2.181449   -1.669414
     40          1           0        3.180576    2.701130    5.253927
 ---------------------------------------------------------------------
                    Distance matrix (angstroms):
                    1          2          3          4          5
     1  N    0.000000
     2  C    1.423229   0.000000
     3  C    1.397380   2.351890   0.000000
     4  C    2.229813   2.341245   1.391439   0.000000
     5  C    2.251026   1.453893   2.299382   1.429074   0.000000
     6  C    3.637602   2.689578   3.518884   2.299376   1.391482
     7  C    3.680760   3.625240   2.689504   1.453890   2.341260
     8  N    4.240046   3.680793   3.637588   2.251067   2.229854
     9  O    2.338628   1.226788   3.512497   3.551514   2.462893
    10  O    4.605432   4.767377   3.394756   2.462864   3.551487
    11  H    5.237106   4.636370   4.588619   3.202728   3.188447
    12  H    1.009388   2.118742   2.136568   3.188491   3.202785
    13  C    4.502422   5.880871   3.771555   4.929744   6.067385
    14  C    3.111876   4.509206   2.578974   3.877336   4.843979
    15  C    3.182343   4.549995   3.246002   4.598851   5.244209
    16  C    4.516269   5.859502   4.607449   5.961311   6.614689
    17  H    4.988347   6.224081   5.323067   6.656934   7.136790
    18  C    5.554273   6.956118   5.360770   6.687955   7.546323
    19  H    6.562342   7.949169   6.434412   7.766618   8.596544
    20  C    5.557789   6.973545   5.038772   6.270130   7.325199
    21  H    6.562950   7.971317   5.940922   7.103570   8.237917
    22  C    2.480698   3.707993   1.431267   2.571282   3.708632
    23  C    4.944622   6.197623   3.893051   4.764038   6.074387
    24  H    6.006641   7.232586   4.912351   5.673750   7.027427
    25  S    4.044851   5.068686   2.753786   3.281400   4.663975
    26  C    6.046655   4.862459   6.072599   4.844313   3.877828
    27  C    6.976797   5.659850   7.209073   6.067415   4.929863
    28  C    8.351729   7.056803   8.518445   7.325444   6.270527
    29  H    9.109680   7.762487   9.383456   8.237925   7.103682
    30  C    8.845915   7.660053   8.818867   7.547118   6.688998
    31  H    9.922477   8.739858   9.878157   8.597431   7.767770
    32  C    8.137415   7.093416   7.926981   6.615903   5.962788
    33  H    8.802162   7.861870   8.459433   7.138381   6.658774
    34  C    6.782398   5.775015   6.556083   5.245385   4.600268
    35  C    6.574198   5.172841   7.047422   6.074149   4.763720
    36  H    7.326414   5.905206   7.920623   7.027100   5.673313
    37  C    4.706602   3.485869   4.843873   3.708571   2.571241
    38  S    4.935355   3.527022   5.499083   4.663557   3.280700
    39  H    2.592522   3.824252   3.063118   4.334573   4.704171
    40  H    6.447342   5.627100   6.028289   4.705941   4.336499
                    6          7          8          9         10
     6  C    0.000000
     7  C    2.351866   0.000000
     8  N    1.397329   1.423292   0.000000
     9  O    3.394855   4.767415   4.605486   0.000000
    10  O    3.512424   1.226753   2.338649   5.942676   0.000000
    11  H    2.136465   2.118710   1.009382   5.492672   2.624796
    12  H    4.588723   4.636407   5.237192   2.624850   5.492676
    13  C    7.208845   5.659436   6.976384   6.820516   5.589525
    14  C    6.072006   4.861599   6.045792   5.410233   5.087152
    15  C    6.554330   5.772889   6.780103   5.193760   6.192330
    16  C    7.924981   7.090974   8.134706   6.394779   7.421379
    17  H    8.456858   7.858880   8.798761   6.577770   8.286941
    18  C    8.817372   7.658108   8.843766   7.607359   7.776649
    19  H    9.876434   8.737653   9.919992   8.532172   8.837614
    20  C    8.517790   7.055843   8.350684   7.795304   6.990230
    21  H    9.383112   7.761920   9.109034   8.828056   7.552626
    22  C    4.843919   3.485851   4.706640   4.791566   3.747839
    23  C    7.047762   5.173326   6.574715   7.265827   4.840839
    24  H    7.921137   5.905953   7.327213   8.316189   5.389108
    25  S    5.499852   3.528379   4.936655   6.231724   3.210924
    26  C    2.579130   4.509178   3.111581   5.088105   5.409992
    27  C    3.771505   5.880715   4.502153   5.590030   6.820212
    28  C    5.038787   6.973351   5.557369   6.991371   7.794825
    29  H    5.940785   7.971028   6.562525   7.553330   8.827543
    30  C    5.361083   6.956054   5.553768   7.778871   7.606786
    31  H    6.434734   7.949068   6.561768   8.840150   8.531478
    32  C    4.608008   5.859643   4.515773   7.424058   6.394303
    33  H    5.323776   6.224351   4.987831   8.290186   6.577276
    34  C    3.246643   4.550271   3.181983   6.194582   5.193526
    35  C    3.892975   6.197606   4.944701   4.840211   7.265833
    36  H    4.912261   7.232581   6.006780   5.388121   8.316246
    37  C    1.431220   3.707939   2.480614   3.747882   4.791468
    38  S    2.753692   5.068785   4.045167   3.209140   6.231958
    39  H    6.025922   5.624505   6.444466   4.322310   6.237856
    40  H    3.064104   3.824974   2.592356   6.240472   4.322413
                   11         12         13         14         15
    11  H    0.000000
    12  H    6.228532   0.000000
    13  C    7.777986   4.367396   0.000000
    14  C    6.937717   2.976637   1.448009   0.000000
    15  C    7.738813   2.717232   2.468269   1.427166   0.000000
    16  C    9.084102   3.932497   2.799390   2.425727   1.376218
    17  H    9.774032   4.302228   3.884924   3.409940   2.130262
    18  C    9.736876   5.051346   2.418133   2.833020   2.446789
    19  H   10.814552   5.997749   3.409177   3.918312   3.415851
    20  C    9.171492   5.233466   1.427500   2.493691   2.844678
    21  H    9.875026   6.269637   2.178013   3.474098   3.930671
    22  C    5.572483   2.778275   2.374316   1.416049   2.573283
    23  C    7.252154   5.034362   1.392278   2.357339   3.674048
    24  H    7.916211   6.099692   2.222723   3.403179   4.652820
    25  S    5.581862   4.432973   2.580816   2.601446   4.009270
    26  C    2.975732   6.938627   9.732854   8.591579   8.980236
    27  C    4.366787   7.778444  10.940577   9.732654  10.001854
    28  C    5.232318   9.172588  12.207207  11.031538  11.325189
    29  H    6.268673   9.875702  13.109822  11.895904  12.121624
    30  C    5.049467   9.739112  12.375976  11.289282  11.688607
    31  H    5.995652  10.817149  13.399611  12.331874  12.736715
    32  C    3.930148   9.086897  11.335094  10.331233  10.831624
    33  H    4.299491   9.777553  11.685312  10.768842  11.337584
    34  C    2.715122   7.741157  10.003035   8.981375   9.493390
    35  C    5.034591   7.251654  10.815223   9.532125   9.669224
    36  H    6.100071   7.915393  11.673208  10.358553  10.409179
    37  C    2.778181   5.572529   8.581135   7.386831   7.734439
    38  S    4.433725   5.580627   9.248941   7.946149   8.065134
    39  H    7.438021   2.064850   3.460870   2.189939   1.083670
    40  H    2.062313   7.440938   9.280337   8.347764   8.953949
                   16         17         18         19         20
    16  C    0.000000
    17  H    1.085967   0.000000
    18  C    1.427124   2.173225   0.000000
    19  H    2.175309   2.486475   1.085705   0.000000
    20  C    2.430813   3.401841   1.372102   2.135023   0.000000
    21  H    3.424072   4.307117   2.144544   2.477645   1.086066
    22  C    3.782740   4.689949   4.236307   5.321780   3.709417
    23  C    4.182532   5.267643   3.740279   4.651456   2.529555
    24  H    4.979306   6.056268   4.278941   5.037336   2.932710
    25  S    4.963002   5.991227   4.957161   5.981812   3.977476
    26  C   10.329598  10.766553  11.288011  12.330220  11.031178
    27  C   11.333530  11.683164  12.374765  13.398090  12.206772
    28  C   12.653146  13.002669  13.680171  14.704208  13.486141
    29  H   13.436003  13.733578  14.509840  15.521213  14.369170
    30  C   13.018757  13.432251  13.965184  14.999360  13.680879
    31  H   14.060219  14.468666  14.999802  16.030949  14.705271
    32  C   12.158352  12.643357  13.018814  14.059740  12.654060
    33  H   12.643922  13.167871  13.432785  14.468584  13.004096
    34  C   10.830909  11.336202  11.688093  12.735673  11.325657
    35  C   10.971764  11.243121  12.087671  13.084624  12.025808
    36  H   11.678977  11.883493  12.841711  13.814522  12.846923
    37  C    9.089195   9.521935  10.072934  11.113167   9.859069
    38  S    9.366696   9.656478  10.477852  11.472463  10.434537
    39  H    2.127991   2.439074   3.421784   4.296549   3.926627
    40  H   10.275190  10.843138  11.045417  12.093659  10.609348
                   21         22         23         24         25
    21  H    0.000000
    22  C    4.552283   0.000000
    23  C    2.815218   2.503890   0.000000
    24  H    2.802255   3.557101   1.081899   0.000000
    25  S    4.466060   1.745787   1.704861   2.434177   0.000000
    26  C   11.895783   7.387446   9.532849  10.359396   7.947303
    27  C   13.109611   8.581408  10.815609  11.673698   9.249603
    28  C   14.369321   9.859787  12.026494  12.847637  10.435435
    29  H   15.275542  10.754890  12.974932  13.817095  11.395259
    30  C   14.510628  10.074508  12.089058  12.843046  10.479454
    31  H   15.522304  11.115001  13.086191  13.815979  11.474157
    32  C   13.437005   9.091271  10.973646  11.680822   9.368949
    33  H   13.735051   9.524640  11.245580  11.885877   9.659326
    34  C   12.122256   7.736217   9.670924  10.410921   8.067361
    35  C   12.974527   8.468991  10.817460  11.733298   9.319418
    36  H   13.816661   9.350072  11.733135  12.667095  10.267029
    37  C   10.754473   6.215609   8.469265   9.350522   6.928250
    38  S   11.394709   6.927592   9.319221  10.267060   7.887537
    39  H    5.012353   2.890773   4.542436   5.573262   4.549381
    40  H   11.359113   7.090859   8.878534   9.571896   7.289814
                   26         27         28         29         30
    26  C    0.000000
    27  C    1.447955   0.000000
    28  C    2.493665   1.427437   0.000000
    29  H    3.474023   2.177912   1.086064   0.000000
    30  C    2.833121   2.418120   1.372108   2.144561   0.000000
    31  H    3.918412   3.409156   2.135041   2.477689   1.085704
    32  C    2.425843   2.799327   2.430741   3.424017   1.427098
    33  H    3.410057   3.884853   3.401766   4.307064   2.173181
    34  C    1.427232   2.468147   2.844542   3.930531   2.446747
    35  C    2.357400   1.392304   2.529394   2.814881   3.740229
    36  H    3.403231   2.222763   2.932501   2.801818   4.278798
    37  C    1.416161   2.374301   3.709414   4.552164   4.236504
    38  S    2.601530   2.580761   3.977320   4.465714   4.957199
    39  H    8.346227   9.278743  10.608659  11.358236  11.045907
    40  H    2.189952   3.460714   3.926455   5.012172   3.421719
                   31         32         33         34         35
    31  H    0.000000
    32  C    2.175320   0.000000
    33  H    2.486478   1.085962   0.000000
    34  C    3.415837   1.376213   2.130282   0.000000
    35  C    4.651356   4.182541   5.267652   3.674085   0.000000
    36  H    5.037116   4.979232   6.056178   4.652804   1.081902
    37  C    5.321970   3.783052   4.690313   2.573628   2.503932
    38  S    5.981811   4.963175   5.991447   4.009496   1.704803
    39  H   12.094785  10.275905  10.844636   8.953786   8.876196
    40  H    4.296525   2.127963   2.439085   1.083665   4.542475
                   36         37         38         39         40
    36  H    0.000000
    37  C    3.557150   0.000000
    38  S    2.434131   1.745836   0.000000
    39  H    9.569484   7.088466   7.286699   0.000000
    40  H    5.573246   2.891189   4.549689   8.506145   0.000000
 Symmetry turned off by external request.
 Stoichiometry    C22H12N2O2S2
 Framework group  C1[X(C22H12N2O2S2)]
 Deg. of freedom   114
 Full point group                 C1      NOp   1
 Rotational constants (GHZ):      0.4404013      0.0726528      0.0645962
 Standard basis: 6-31+G(d,p) (6D, 7F)
 Integral buffers will be    131072 words long.
 Raffenetti 2 integral format.
 Two-electron integral symmetry is turned off.
   600 basis functions,  1028 primitive gaussians,   600 cartesian basis functions
   103 alpha electrons      103 beta electrons
       nuclear repulsion energy      2628.6637159897 Hartrees.
 NAtoms=   40 NActive=   40 NUniq=   40 SFac= 7.50D-01 NAtFMM=   80 NAOKFM=F Big=F
 One-electron integrals computed using PRISM.
 NBasis=   600 RedAO= T  NBF=   600
 NBsUse=   592 1.00D-06 NBFU=   592
 Harris functional with IExCor=20419 diagonalized for initial guess.
 ExpMin= 4.05D-02 ExpMax= 2.19D+04 ExpMxC= 3.30D+03 IAcc=2 IRadAn=         0 AccDes= 0.00D+00
 HarFok:  IExCor=20419 AccDes= 0.00D+00 IRadAn=         0 IDoV= 1
 ScaDFX=  1.000000  1.000000  1.000000  1.000000
 FoFCou: FMM=F IPFlag=           0 FMFlag=      100000 FMFlg1=           0
         NFxFlg=           0 DoJE=T BraDBF=F KetDBF=T FulRan=T
         Omega=  0.000000  0.000000  1.000000  0.000000  0.000000 ICntrl=     500 IOpCl=  0
         NMat0=    1 NMatS0=    1 NMatT0=    0 NMatD0=    1 NMtDS0=    0 NMtDT0=    0
         I1Cent=           4 NGrid=           0.
 Symmetry not used in FoFCou.
 Requested convergence on RMS density matrix=1.00D-08 within 128 cycles.
 Requested convergence on MAX density matrix=1.00D-06.
 Requested convergence on             energy=1.00D-06.
 No special actions if energy rises.
 FoFJK:  IHMeth= 1 ICntrl=     0 DoSepK=T KAlg= 1 I1Cent= 0 FoldK=F
 FoFJK:  IHMeth= 1 ICntrl=     0 DoSepK=T KAlg= 1 I1Cent= 0 FoldK=F
 FoFJK:  IHMeth= 1 ICntrl=     0 DoSepK=T KAlg= 1 I1Cent= 0 FoldK=F
 FoFJK:  IHMeth= 1 ICntrl=     0 DoSepK=T KAlg= 1 I1Cent= 0 FoldK=F
 FoFJK:  IHMeth= 1 ICntrl=     0 DoSepK=T KAlg= 1 I1Cent= 0 FoldK=F
 FoFJK:  IHMeth= 1 ICntrl=     0 DoSepK=T KAlg= 1 I1Cent= 0 FoldK=F
 FoFJK:  IHMeth= 1 ICntrl=     0 DoSepK=T KAlg= 1 I1Cent= 0 FoldK=F
 FoFJK:  IHMeth= 1 ICntrl=     0 DoSepK=T KAlg= 1 I1Cent= 0 FoldK=F
 FoFJK:  IHMeth= 1 ICntrl=     0 DoSepK=T KAlg= 1 I1Cent= 0 FoldK=F
 FoFJK:  IHMeth= 1 ICntrl=     0 DoSepK=T KAlg= 1 I1Cent= 0 FoldK=F
 FoFJK:  IHMeth= 1 ICntrl=     0 DoSepK=T KAlg= 1 I1Cent= 0 FoldK=F
 FoFJK:  IHMeth= 1 ICntrl=     0 DoSepK=T KAlg= 1 I1Cent= 0 FoldK=F
 FoFJK:  IHMeth= 1 ICntrl=     0 DoSepK=T KAlg= 1 I1Cent= 0 FoldK=F
 FoFJK:  IHMeth= 1 ICntrl=     0 DoSepK=T KAlg= 1 I1Cent= 0 FoldK=F
 FoFJK:  IHMeth= 1 ICntrl=     0 DoSepK=T KAlg= 1 I1Cent= 0 FoldK=F
 FoFJK:  IHMeth= 1 ICntrl=     0 DoSepK=T KAlg= 1 I1Cent= 0 FoldK=F
 FoFJK:  IHMeth= 1 ICntrl=     0 DoSepK=T KAlg= 1 I1Cent= 0 FoldK=F
 FoFJK:  IHMeth= 1 ICntrl=     0 DoSepK=T KAlg= 1 I1Cent= 0 FoldK=F
 FoFJK:  IHMeth= 1 ICntrl=     0 DoSepK=T KAlg= 1 I1Cent= 0 FoldK=F
 Restarting incremental Fock formation.
 FoFJK:  IHMeth= 1 ICntrl=     0 DoSepK=T KAlg= 1 I1Cent= 0 FoldK=F
 SCF Done:  E(RCAM-B3LYP) =  -1901.35896243     A.U. after   20 cycles
             Convg  =    0.7235D-08             -V/T =  2.0069
 ExpMin= 4.05D-02 ExpMax= 2.19D+04 ExpMxC= 3.30D+03 IAcc=3 IRadAn=         5 AccDes= 0.00D+00
 HarFok:  IExCor=  205 AccDes= 0.00D+00 IRadAn=         5 IDoV=-2
 ScaDFX=  1.000000  1.000000  1.000000  1.000000
 Range of M.O.s used for correlation:    37   592
 NBasis=   600 NAE=   103 NBE=   103 NFC=    36 NFV=     0
 NROrb=    556 NOA=    67 NOB=    67 NVA=   489 NVB=   489

 **** Warning!!: The largest alpha MO coefficient is  0.16940174D+03

 Would need an additional 48457600000 words for in-memory AO integral storage.
    40 initial guesses have been made.
 Convergence on wavefunction:    0.001000000000000
 Iteration     1 Dimension    40 NMult    40
 CISAX will form    40 AO SS matrices at one time.
 FoFJK:  IHMeth= 1 ICntrl=     0 DoSepK=T KAlg= 1 I1Cent= 0 FoldK=F
 FoFJK:  IHMeth= 1 ICntrl=     0 DoSepK=T KAlg= 1 I1Cent= 0 FoldK=F
 New state      3 was old state      4
 New state      4 was old state      3
 New state      5 was old state      9
 New state      6 was old state     10
 New state      7 was old state      5
 New state      8 was old state      7
 New state      9 was old state      8
 New state     10 was old state      6
 Iteration     2 Dimension    60 NMult    60
 FoFJK:  IHMeth= 1 ICntrl=     0 DoSepK=T KAlg= 1 I1Cent= 0 FoldK=F
 FoFJK:  IHMeth= 1 ICntrl=     0 DoSepK=T KAlg= 1 I1Cent= 0 FoldK=F
 New state      3 was old state      4
 New state      4 was old state      3
 New state      5 was old state      7
 New state      6 was old state      5
 New state      7 was old state      6
 New state      8 was old state      9
 New state      9 was old state      8
 Iteration     3 Dimension    80 NMult    80
 FoFJK:  IHMeth= 1 ICntrl=     0 DoSepK=T KAlg= 1 I1Cent= 0 FoldK=F
 FoFJK:  IHMeth= 1 ICntrl=     0 DoSepK=T KAlg= 1 I1Cent= 0 FoldK=F
 New state      4 was old state      5
 New state      5 was old state      4
 Iteration     4 Dimension   100 NMult   100
 FoFJK:  IHMeth= 1 ICntrl=     0 DoSepK=T KAlg= 1 I1Cent= 0 FoldK=F
 FoFJK:  IHMeth= 1 ICntrl=     0 DoSepK=T KAlg= 1 I1Cent= 0 FoldK=F
 Iteration     5 Dimension   120 NMult   120
 FoFJK:  IHMeth= 1 ICntrl=     0 DoSepK=T KAlg= 1 I1Cent= 0 FoldK=F
 FoFJK:  IHMeth= 1 ICntrl=     0 DoSepK=T KAlg= 1 I1Cent= 0 FoldK=F
 Iteration     6 Dimension   136 NMult   136
 FoFJK:  IHMeth= 1 ICntrl=     0 DoSepK=T KAlg= 1 I1Cent= 0 FoldK=F
 FoFJK:  IHMeth= 1 ICntrl=     0 DoSepK=T KAlg= 1 I1Cent= 0 FoldK=F
 Iteration     7 Dimension   138 NMult   138
 FoFJK:  IHMeth= 1 ICntrl=     0 DoSepK=T KAlg= 1 I1Cent= 0 FoldK=F
 FoFJK:  IHMeth= 1 ICntrl=     0 DoSepK=T KAlg= 1 I1Cent= 0 FoldK=F
 ***********************************************************************
 Excited states from <AA,BB:AA,BB> singles matrix:
 ***********************************************************************
 
 Ground to excited state transition electric dipole moments (Au):
       state          X           Y           Z        Dip. S.      Osc.
         1         0.9852     -1.0410     -3.6800     15.5969      0.8795
         2        -0.0130      0.0119     -0.0047      0.0003      0.0000
         3         0.0394     -0.0344      0.0199      0.0031      0.0003
         4         0.8346      0.6446     -0.4915      1.3537      0.1257
         5        -0.4664      0.0495      0.9788      1.1780      0.1097
         6         0.0536     -0.0479      0.0266      0.0059      0.0006
         7         0.0098     -0.0085      0.0069      0.0002      0.0000
         8         0.2656      0.8134      0.8715      1.4915      0.1572
         9         0.2198     -0.1787      0.1270      0.0964      0.0102
        10        -0.2918     -0.7241     -0.6807      1.0729      0.1175
 Ground to excited state transition velocity dipole moments (Au):
       state          X           Y           Z        Dip. S.      Osc.
         1        -0.0798      0.0906      0.3088      0.1099      0.8665
         2         0.0013     -0.0012      0.0004      0.0000      0.0000
         3        -0.0059      0.0052     -0.0030      0.0001      0.0004
         4        -0.1224     -0.0938      0.0733      0.0292      0.1396
         5         0.0587     -0.0088     -0.1276      0.0198      0.0945
         6        -0.0032      0.0029     -0.0015      0.0000      0.0001
         7        -0.0021      0.0018     -0.0013      0.0000      0.0000
         8        -0.0430     -0.1216     -0.1239      0.0320      0.1349
         9        -0.0326      0.0264     -0.0187      0.0021      0.0089
        10         0.0453      0.1104      0.1021      0.0247      0.1001
 Ground to excited state transition magnetic dipole moments (Au):
       state          X           Y           Z
         1         0.3522     -1.3619      0.4755
         2         0.8331     -0.7408      0.4255
         3        -0.2958      0.2440     -0.1139
         4         0.1079     -0.9805     -0.2706
         5        -0.3417      0.4728     -0.1717
         6         0.0331     -0.0404      0.0392
         7        -0.7977      0.7071     -0.4007
         8        -0.0121      0.1109     -0.6554
         9         0.5682     -0.6221      0.5059
        10         0.6977      0.6750      0.4218
 <0|del|b> * <b|rxdel|0> + <0|del|b> * <b|delr+rdel|0>
 Rotatory Strengths (R) in cgs (10**-40 erg-esu-cm/Gauss)
       state          XX          YY          ZZ    R(velocity)
         1        22.1784    -86.2356     25.2419    -12.9385
 Total R(velocity) tensor for State=          1
                 1             2             3 
      1   0.221784D+02 -0.102982D+03  0.359457D+02
      2  -0.184275D+03 -0.862356D+02 -0.222911D+02
      3  -0.103601D+03 -0.177218D+03  0.252419D+02
         2        -0.8575      4.6295      9.4999      4.4240
 Total R(velocity) tensor for State=          2
                 1             2             3 
      1  -0.857486D+00 -0.191941D+01 -0.274603D+01
      2   0.348817D+01  0.462948D+01  0.247024D+01
      3   0.769950D+01  0.116973D+02  0.949990D+01
         3        -7.7579     10.4833     15.5100      6.0785
 Total R(velocity) tensor for State=          3
                 1             2             3 
      1  -0.775789D+01 -0.113580D+02 -0.427521D+01
      2   0.701779D+01  0.104833D+02  0.422711D+01
      3   0.269310D+02  0.398167D+02  0.155100D+02
         4        61.4368     52.5028    185.3452     99.7616
 Total R(velocity) tensor for State=          4
                 1             2             3 
      1   0.614368D+02 -0.122811D+03 -0.545934D+02
      2  -0.619463D+02  0.525028D+02 -0.362435D+02
      3   0.498130D+02  0.798242D+02  0.185345D+03
         5        28.6233    -21.3212    -18.9609     -3.8863
 Total R(velocity) tensor for State=          5
                 1             2             3 
      1   0.286233D+02 -0.401593D+01  0.134348D+02
      2  -0.443239D+02 -0.213212D+02 -0.188975D+02
      3  -0.557370D+02 -0.961799D+02 -0.189609D+02
         6        -2.2798      1.5929     -0.6836     -0.4568
 Total R(velocity) tensor for State=          6
                 1             2             3 
      1  -0.227980D+01 -0.224948D+01  0.589204D+00
      2   0.129955D+01  0.159293D+01  0.258500D+00
      3   0.663079D+01  0.708099D+01 -0.683647D+00
         7         3.3145      5.5258      7.6417      5.4940
 Total R(velocity) tensor for State=          7
                 1             2             3 
      1   0.331455D+01  0.239666D+01 -0.194336D+01
      2   0.333267D+01  0.552576D+01  0.227093D+01
      3  -0.654152D+00  0.488008D+01  0.764170D+01
         8       112.9894     12.2742    179.9878    101.7505
 Total R(velocity) tensor for State=          8
                 1             2             3 
      1   0.112989D+03  0.470321D+02 -0.853991D+02
      2  -0.125359D+02  0.122742D+02 -0.769027D+01
      3  -0.187736D+03 -0.116966D+03  0.179988D+03
         9       -51.3489    -13.3335   -133.4913    -66.0579
 Total R(velocity) tensor for State=          9
                 1             2             3 
      1  -0.513489D+02 -0.373753D+02  0.366189D+02
      2   0.957774D+01 -0.133335D+02 -0.355004D+02
      3   0.116632D+03  0.492575D+02 -0.133491D+03
        10       207.5528     21.1423    413.7908    214.1620
 Total R(velocity) tensor for State=         10
                 1             2             3 
      1   0.207553D+03 -0.938269D+01 -0.819566D+02
      2  -0.160769D+03  0.211423D+02  0.484918D+02
      3  -0.341838D+03 -0.242587D+03  0.413791D+03
 1/2[<0|r|b>*<b|rxdel|0> + (<0|rxdel|b>*<b|r|0>)*]
 Rotatory Strengths (R) in cgs (10**-40 erg-esu-cm/Gauss)
       state          XX          YY          ZZ     R(length)     R(au)
         1      -245.3849  -1002.5705   1237.5356     -3.4733     -0.0074
         2         7.6645      6.2504      1.4053      5.1067      0.0108
         3         8.2332      5.9350      1.6060      5.2581      0.0112
         4       -63.7015    446.9498    -94.0365     96.4039      0.2045
         5      -112.6831    -16.5375    118.8734     -3.4491     -0.0073
         6        -1.2544     -1.3663     -0.7361     -1.1189     -0.0024
         7         5.5527      4.2257      1.9546      3.9110      0.0083
         8         2.2760    -63.7795    403.8939    114.1301      0.2421
         9       -88.3229    -78.6282    -45.4309    -70.7940     -0.1502
        10       143.9889    345.6530    203.0247    230.8889      0.4897
  1/2[<0|del|b>*<b|r|0> + (<0|r|b>*<b|del|0>)*] (Au)
       state          X           Y           Z        Dip. S.   Osc.(frdel)
         1        -0.0786     -0.0943     -1.1364      1.3094      0.8729
         2         0.0000      0.0000      0.0000      0.0000      0.0000
         3        -0.0002     -0.0002     -0.0001      0.0005      0.0003
         4        -0.1022     -0.0605     -0.0360      0.1987      0.1325
         5        -0.0274     -0.0004     -0.1249      0.1527      0.1018
         6        -0.0002     -0.0001      0.0000      0.0004      0.0002
         7         0.0000      0.0000      0.0000      0.0000      0.0000
         8        -0.0114     -0.0989     -0.1080      0.2183      0.1455
         9        -0.0072     -0.0047     -0.0024      0.0142      0.0095
        10        -0.0132     -0.0799     -0.0695      0.1627      0.1084
 Ground to excited state transition densities written to RWF  633

 Excitation energies and oscillator strengths:
 
 Excited state symmetry could not be determined.
 Excited State   1:      Singlet-?Sym    2.3017 eV  538.66 nm  f=0.8795  <S**2>=0.000
     102 ->105        -0.10280
     103 ->104         0.69824
 This state for optimization and/or second-order correction.
 Copying the excited state density for this state as the 1-particle RhoCI density.
 
 Excited state symmetry could not be determined.
 Excited State   2:      Singlet-?Sym    3.1575 eV  392.67 nm  f=0.0000  <S**2>=0.000
     102 ->104        -0.15234
     102 ->106        -0.10752
     103 ->105         0.67677
 
 Excited state symmetry could not be determined.
 Excited State   3:      Singlet-?Sym    3.5502 eV  349.23 nm  f=0.0003  <S**2>=0.000
     101 ->105         0.17093
     102 ->104         0.64041
     103 ->105         0.13873
 
 Excited state symmetry could not be determined.
 Excited State   4:      Singlet-?Sym    3.7901 eV  327.12 nm  f=0.1257  <S**2>=0.000
     101 ->104        -0.36815
     102 ->105        -0.28902
     103 ->106         0.50858
 
 Excited state symmetry could not be determined.
 Excited State   5:      Singlet-?Sym    3.8003 eV  326.25 nm  f=0.1097  <S**2>=0.000
     101 ->104         0.53772
     102 ->107         0.10811
     103 ->106         0.40226
 
 Excited state symmetry could not be determined.
 Excited State   6:      Singlet-?Sym    3.9762 eV  311.82 nm  f=0.0006  <S**2>=0.000
      96 ->105         0.10050
      98 ->104         0.55046
      98 ->106        -0.17430
     100 ->104         0.30419
     102 ->104         0.11070
 
 Excited state symmetry could not be determined.
 Excited State   7:      Singlet-?Sym    4.0906 eV  303.10 nm  f=0.0000  <S**2>=0.000
      97 ->104         0.63400
      97 ->106        -0.18899
      98 ->104        -0.12566
     100 ->104         0.11229
 
 Excited state symmetry could not be determined.
 Excited State   8:      Singlet-?Sym    4.3022 eV  288.18 nm  f=0.1572  <S**2>=0.000
      96 ->104         0.36992
      96 ->106        -0.13304
      99 ->104         0.47084
     100 ->105         0.21837
     103 ->106         0.12496
 
 Excited state symmetry could not be determined.
 Excited State   9:      Singlet-?Sym    4.3094 eV  287.71 nm  f=0.0102  <S**2>=0.000
      97 ->104        -0.17377
      98 ->104        -0.26155
      99 ->105         0.25451
     100 ->104         0.40505
     102 ->106         0.14873
     103 ->107         0.30953
 
 Excited state symmetry could not be determined.
 Excited State  10:      Singlet-?Sym    4.4685 eV  277.46 nm  f=0.1175  <S**2>=0.000
      96 ->104         0.46751
      96 ->106        -0.12943
      98 ->105         0.18914
      98 ->107         0.10142
      99 ->104        -0.34148
     100 ->105        -0.18684
 SavETr:  write IOETrn=   770 NScale= 10 NData=  16 NLR=1 LETran=     190.

 **********************************************************************

            Population analysis using the SCF density.

 **********************************************************************

 Alpha  occ. eigenvalues --  -89.01480 -89.01478 -19.20736 -19.20733 -14.46217
 Alpha  occ. eigenvalues --  -14.46217 -10.38193 -10.38191 -10.35226 -10.35223
 Alpha  occ. eigenvalues --  -10.32189 -10.32185 -10.31469 -10.31465 -10.30327
 Alpha  occ. eigenvalues --  -10.30321 -10.29650 -10.29647 -10.28955 -10.28953
 Alpha  occ. eigenvalues --  -10.28912 -10.28907 -10.28795 -10.28791 -10.28453
 Alpha  occ. eigenvalues --  -10.28450 -10.27054 -10.27010  -8.07315  -8.07313
 Alpha  occ. eigenvalues --   -6.03818  -6.03816  -6.03399  -6.03397  -6.03201
 Alpha  occ. eigenvalues --   -6.03199  -1.13256  -1.12656  -1.06185  -1.04902
 Alpha  occ. eigenvalues --   -0.99833  -0.99751  -0.93440  -0.93435  -0.89459
 Alpha  occ. eigenvalues --   -0.88074  -0.87712  -0.84557  -0.83584  -0.83373
 Alpha  occ. eigenvalues --   -0.82732  -0.78098  -0.75696  -0.75533  -0.71228
 Alpha  occ. eigenvalues --   -0.71217  -0.69105  -0.67548  -0.67318  -0.66388
 Alpha  occ. eigenvalues --   -0.63878  -0.61835  -0.61534  -0.60952  -0.57439
 Alpha  occ. eigenvalues --   -0.57070  -0.55861  -0.54963  -0.54908  -0.54298
 Alpha  occ. eigenvalues --   -0.53226  -0.52881  -0.51820  -0.51606  -0.51256
 Alpha  occ. eigenvalues --   -0.50192  -0.49812  -0.49808  -0.49211  -0.48998
 Alpha  occ. eigenvalues --   -0.48938  -0.48605  -0.46451  -0.44354  -0.44082
 Alpha  occ. eigenvalues --   -0.43337  -0.42898  -0.42773  -0.42004  -0.41978
 Alpha  occ. eigenvalues --   -0.41684  -0.40675  -0.40454  -0.35960  -0.35724
 Alpha  occ. eigenvalues --   -0.34379  -0.33123  -0.32759  -0.31593  -0.31537
 Alpha  occ. eigenvalues --   -0.29407  -0.27799  -0.22794
 Alpha virt. eigenvalues --   -0.07667  -0.04083  -0.01236   0.02368   0.02382
 Alpha virt. eigenvalues --    0.02551   0.03183   0.03290   0.03881   0.04110
 Alpha virt. eigenvalues --    0.04210   0.04346   0.04694   0.05185   0.05644
 Alpha virt. eigenvalues --    0.05849   0.06061   0.06450   0.06724   0.07241
 Alpha virt. eigenvalues --    0.07300   0.07743   0.07891   0.08418   0.08649
 Alpha virt. eigenvalues --    0.09017   0.09027   0.09245   0.10009   0.10089
 Alpha virt. eigenvalues --    0.10546   0.11386   0.11615   0.11684   0.11829
 Alpha virt. eigenvalues --    0.12071   0.12764   0.13267   0.13432   0.13686
 Alpha virt. eigenvalues --    0.13887   0.14433   0.14480   0.14694   0.15143
 Alpha virt. eigenvalues --    0.15267   0.16154   0.16242   0.16374   0.16952
 Alpha virt. eigenvalues --    0.17244   0.17449   0.17784   0.17928   0.17946
 Alpha virt. eigenvalues --    0.18490   0.18792   0.18962   0.19476   0.19580
 Alpha virt. eigenvalues --    0.19698   0.19950   0.20269   0.20318   0.20619
 Alpha virt. eigenvalues --    0.21124   0.21185   0.21299   0.21472   0.22010
 Alpha virt. eigenvalues --    0.22251   0.22398   0.22698   0.22823   0.23288
 Alpha virt. eigenvalues --    0.23484   0.23535   0.23603   0.24287   0.24494
 Alpha virt. eigenvalues --    0.24522   0.24730   0.24902   0.25000   0.25599
 Alpha virt. eigenvalues --    0.25611   0.26073   0.26227   0.26720   0.26878
 Alpha virt. eigenvalues --    0.27277   0.27407   0.27743   0.27900   0.27964
 Alpha virt. eigenvalues --    0.28681   0.28693   0.29200   0.29202   0.29755
 Alpha virt. eigenvalues --    0.30172   0.30189   0.30317   0.30929   0.31241
 Alpha virt. eigenvalues --    0.31495   0.31653   0.32055   0.32133   0.32660
 Alpha virt. eigenvalues --    0.32834   0.33243   0.33262   0.33555   0.33840
 Alpha virt. eigenvalues --    0.34337   0.34601   0.35257   0.35259   0.35873
 Alpha virt. eigenvalues --    0.35917   0.36659   0.36785   0.37045   0.37406
 Alpha virt. eigenvalues --    0.37873   0.38433   0.38512   0.39070   0.39616
 Alpha virt. eigenvalues --    0.39964   0.40119   0.40426   0.40521   0.42055
 Alpha virt. eigenvalues --    0.42312   0.42758   0.43423   0.44515   0.45085
 Alpha virt. eigenvalues --    0.45670   0.45784   0.46092   0.47823   0.47874
 Alpha virt. eigenvalues --    0.48920   0.48978   0.50508   0.51216   0.52148
 Alpha virt. eigenvalues --    0.53008   0.54057   0.55603   0.55935   0.57680
 Alpha virt. eigenvalues --    0.58949   0.59938   0.60018   0.60933   0.63168
 Alpha virt. eigenvalues --    0.65041   0.65368   0.65742   0.65875   0.67446
 Alpha virt. eigenvalues --    0.68035   0.70087   0.70725   0.70911   0.71831
 Alpha virt. eigenvalues --    0.72253   0.72354   0.72717   0.73021   0.73207
 Alpha virt. eigenvalues --    0.74155   0.74281   0.75162   0.75477   0.76727
 Alpha virt. eigenvalues --    0.76803   0.77110   0.77895   0.78526   0.78636
 Alpha virt. eigenvalues --    0.79085   0.79153   0.79893   0.79916   0.80397
 Alpha virt. eigenvalues --    0.80494   0.81174   0.81425   0.83349   0.83587
 Alpha virt. eigenvalues --    0.83794   0.84173   0.85053   0.85156   0.85304
 Alpha virt. eigenvalues --    0.86205   0.86699   0.87650   0.87863   0.88179
 Alpha virt. eigenvalues --    0.89983   0.90140   0.91342   0.92317   0.92519
 Alpha virt. eigenvalues --    0.93770   0.93823   0.94752   0.95063   0.95222
 Alpha virt. eigenvalues --    0.96265   0.96972   0.97345   0.99019   0.99460
 Alpha virt. eigenvalues --    0.99726   1.00493   1.01243   1.02260   1.02468
 Alpha virt. eigenvalues --    1.03338   1.04373   1.04827   1.05262   1.05661
 Alpha virt. eigenvalues --    1.07132   1.07401   1.07890   1.08636   1.09515
 Alpha virt. eigenvalues --    1.11290   1.12034   1.13532   1.13695   1.14398
 Alpha virt. eigenvalues --    1.14472   1.15732   1.17204   1.17507   1.18866
 Alpha virt. eigenvalues --    1.19330   1.19426   1.20369   1.20433   1.21245
 Alpha virt. eigenvalues --    1.21870   1.23545   1.24275   1.24657   1.24924
 Alpha virt. eigenvalues --    1.26452   1.26997   1.28256   1.28998   1.29330
 Alpha virt. eigenvalues --    1.30818   1.30845   1.31162   1.33067   1.33652
 Alpha virt. eigenvalues --    1.33887   1.34860   1.36205   1.36939   1.36954
 Alpha virt. eigenvalues --    1.37380   1.37991   1.38472   1.39666   1.40115
 Alpha virt. eigenvalues --    1.40131   1.42173   1.42237   1.43248   1.43357
 Alpha virt. eigenvalues --    1.43984   1.44465   1.45322   1.45926   1.46077
 Alpha virt. eigenvalues --    1.46487   1.46508   1.47110   1.47522   1.47813
 Alpha virt. eigenvalues --    1.48493   1.49660   1.51383   1.51532   1.51755
 Alpha virt. eigenvalues --    1.52018   1.53321   1.54248   1.55645   1.57048
 Alpha virt. eigenvalues --    1.57972   1.58765   1.61201   1.62664   1.66056
 Alpha virt. eigenvalues --    1.69537   1.69698   1.71457   1.73659   1.74142
 Alpha virt. eigenvalues --    1.75341   1.78369   1.79025   1.82078   1.83212
 Alpha virt. eigenvalues --    1.83812   1.85703   1.86426   1.88003   1.88874
 Alpha virt. eigenvalues --    1.89536   1.90140   1.90725   1.90749   1.91314
 Alpha virt. eigenvalues --    1.91417   1.92706   1.93364   1.95020   1.95389
 Alpha virt. eigenvalues --    1.96692   1.96717   1.97745   1.98434   1.99644
 Alpha virt. eigenvalues --    1.99831   2.00973   2.01008   2.02171   2.02854
 Alpha virt. eigenvalues --    2.04000   2.04802   2.06279   2.06284   2.06878
 Alpha virt. eigenvalues --    2.09099   2.09332   2.10839   2.11206   2.11819
 Alpha virt. eigenvalues --    2.12410   2.13072   2.13429   2.15194   2.16779
 Alpha virt. eigenvalues --    2.18792   2.19456   2.22069   2.22939   2.22993
 Alpha virt. eigenvalues --    2.23611   2.25235   2.25656   2.27660   2.27745
 Alpha virt. eigenvalues --    2.29203   2.31096   2.32593   2.34539   2.34968
 Alpha virt. eigenvalues --    2.35088   2.35929   2.37066   2.37997   2.39556
 Alpha virt. eigenvalues --    2.39564   2.41548   2.42904   2.43707   2.44524
 Alpha virt. eigenvalues --    2.44742   2.45206   2.45760   2.46295   2.46397
 Alpha virt. eigenvalues --    2.47789   2.51503   2.51638   2.53049   2.53159
 Alpha virt. eigenvalues --    2.53953   2.54536   2.57099   2.58592   2.58604
 Alpha virt. eigenvalues --    2.59027   2.59274   2.59381   2.61317   2.62506
 Alpha virt. eigenvalues --    2.62703   2.63982   2.64260   2.65211   2.65560
 Alpha virt. eigenvalues --    2.65868   2.67106   2.67706   2.69525   2.70088
 Alpha virt. eigenvalues --    2.70761   2.71548   2.72105   2.73068   2.74585
 Alpha virt. eigenvalues --    2.75930   2.79726   2.80040   2.81384   2.82506
 Alpha virt. eigenvalues --    2.83959   2.84665   2.85170   2.86880   2.87591
 Alpha virt. eigenvalues --    2.88030   2.90194   2.93072   2.95028   2.96280
 Alpha virt. eigenvalues --    3.01035   3.05042   3.05364   3.06818   3.10230
 Alpha virt. eigenvalues --    3.10475   3.12732   3.13073   3.19910   3.21678
 Alpha virt. eigenvalues --    3.22413   3.25798   3.26387   3.33527   3.33766
 Alpha virt. eigenvalues --    3.34014   3.34178   3.36645   3.37308   3.41349
 Alpha virt. eigenvalues --    3.42530   3.43871   3.51195   3.54665   3.54686
 Alpha virt. eigenvalues --    3.57225   3.57268   3.63382   3.63406   3.90875
 Alpha virt. eigenvalues --    3.90928   4.05020   4.05424   4.30805   4.33603
 Alpha virt. eigenvalues --    4.33810   4.35766   4.36071   4.37604   4.38489
 Alpha virt. eigenvalues --    4.40181   4.42053   4.44626   4.47263   4.47999
 Alpha virt. eigenvalues --    4.49975   4.50607   4.52700   4.57477   4.59712
 Alpha virt. eigenvalues --    4.60487   4.60839   4.67623   4.76978   4.85004
 Alpha virt. eigenvalues --    4.93328   4.93457   5.05504   5.13029
          Condensed to atoms (all electrons):
              1          2          3          4          5          6
     1  N    7.423225   0.311857   0.056391  -0.010226  -0.149436  -0.030629
     2  C    0.311857   9.113694   0.876444  -0.898045  -3.871682  -0.318357
     3  C    0.056391   0.876444  10.734353   1.588921  -4.820569  -2.120877
     4  C   -0.010226  -0.898045   1.588921  17.179073   0.439090  -4.844880
     5  C   -0.149436  -3.871682  -4.820569   0.439090  17.110389   1.582076
     6  C   -0.030629  -0.318357  -2.120877  -4.844880   1.582076  10.728592
     7  C   -0.082330  -0.217147  -0.339059  -3.888696  -0.877846   0.879977
     8  N   -0.000755  -0.082211  -0.030892  -0.151666  -0.010020   0.057821
     9  O   -0.091163   0.253370  -0.068442  -0.049644  -0.024141   0.093784
    10  O   -0.004108   0.022217   0.094109  -0.021488  -0.049785  -0.068199
    11  H    0.000640   0.007560   0.003945   0.108178   0.036824  -0.076799
    12  H    0.308567  -0.064081  -0.077402   0.036796   0.108839   0.004112
    13  C   -0.168947  -0.224044  -0.736327  -1.678589  -0.152227  -0.039359
    14  C   -0.175895  -0.239197  -0.651771  -1.189505  -0.874439   0.241428
    15  C    0.186503   0.299012   0.613368   0.892188   0.441172  -0.040133
    16  C    0.064821   0.196922  -0.355189   0.060046  -0.386381  -0.006793
    17  H    0.000374   0.000117  -0.002280  -0.000331   0.000172   0.000014
    18  C    0.010861  -0.000290   0.014123   0.006005   0.047323  -0.000124
    19  H    0.000005  -0.000009   0.000132   0.000006  -0.000030  -0.000001
    20  C   -0.052985  -0.005353   0.155769  -0.337896  -0.151605  -0.015293
    21  H    0.000005  -0.000005   0.000643   0.000233  -0.000008   0.000001
    22  C   -0.082885   0.352653   1.272248   0.556671  -0.933970  -0.665480
    23  C   -0.016114   0.020230  -0.097314   0.208183   0.106534   0.035857
    24  H    0.000040  -0.000033  -0.007672   0.002090  -0.000380   0.000072
    25  S    0.037024   0.110224  -0.178643   0.106569   0.067622  -0.018514
    26  C   -0.022929   0.247141   0.241202  -0.892190  -1.173768  -0.632343
    27  C   -0.025922   0.021542  -0.036068  -0.158291  -1.666315  -0.731835
    28  C   -0.001964   0.028708  -0.014636  -0.151909  -0.331616   0.148985
    29  H    0.000000   0.000002   0.000001  -0.000008   0.000233   0.000647
    30  C    0.000147  -0.006887  -0.000201   0.047549   0.005413   0.015485
    31  H    0.000000  -0.000002  -0.000001  -0.000030   0.000006   0.000129
    32  C    0.000315   0.031825  -0.006694  -0.384704   0.060564  -0.357570
    33  H    0.000000   0.000014   0.000014   0.000175  -0.000328  -0.002281
    34  C    0.013736  -0.130423  -0.043156   0.450270   0.880148   0.613971
    35  C    0.006798   0.088791   0.034403   0.106457   0.202125  -0.090326
    36  H   -0.000002   0.000273   0.000073  -0.000376   0.002135  -0.007694
    37  C   -0.091689  -0.252912  -0.661250  -0.927659   0.546939   1.263155
    38  S    0.012665  -0.168225  -0.018345   0.068336   0.105314  -0.181080
    39  H   -0.007426   0.009458  -0.021275   0.004808  -0.002954   0.000880
    40  H    0.000012   0.000928   0.000863  -0.003043   0.004791  -0.020734
              7          8          9         10         11         12
     1  N   -0.082330  -0.000755  -0.091163  -0.004108   0.000640   0.308567
     2  C   -0.217147  -0.082211   0.253370   0.022217   0.007560  -0.064081
     3  C   -0.339059  -0.030892  -0.068442   0.094109   0.003945  -0.077402
     4  C   -3.888696  -0.151666  -0.049644  -0.021488   0.108178   0.036796
     5  C   -0.877846  -0.010020  -0.024141  -0.049785   0.036824   0.108839
     6  C    0.879977   0.057821   0.093784  -0.068199  -0.076799   0.004112
     7  C    9.122352   0.312223   0.022345   0.251049  -0.063704   0.007586
     8  N    0.312223   7.423441  -0.004090  -0.091320   0.308483   0.000641
     9  O    0.022345  -0.004090   8.423193  -0.000014  -0.000028   0.003409
    10  O    0.251049  -0.091320  -0.000014   8.423623   0.003405  -0.000028
    11  H   -0.063704   0.308483  -0.000028   0.003405   0.392324   0.000000
    12  H    0.007586   0.000641   0.003409  -0.000028   0.000000   0.392141
    13  C    0.026960  -0.025783   0.002534  -0.040298   0.000003  -0.026612
    14  C    0.249920  -0.022933   0.026833  -0.022992  -0.000279  -0.097482
    15  C   -0.134147   0.013633  -0.017718   0.016233   0.000039   0.073519
    16  C    0.031008   0.000292  -0.004326   0.000342   0.000004   0.013740
    17  H    0.000014   0.000000   0.000001   0.000000   0.000000  -0.000010
    18  C   -0.006805   0.000149   0.000258   0.000065   0.000000   0.001122
    19  H   -0.000002   0.000000   0.000000   0.000000   0.000000   0.000000
    20  C    0.028897  -0.001967  -0.000651  -0.002198   0.000000  -0.004075
    21  H    0.000002   0.000000   0.000000   0.000000   0.000000   0.000000
    22  C   -0.253019  -0.091619  -0.002305   0.042689   0.000026  -0.000356
    23  C    0.088514   0.006780   0.000044   0.016045  -0.000036   0.003841
    24  H    0.000265  -0.000002   0.000000  -0.000018   0.000000   0.000000
    25  S   -0.169103   0.012485  -0.002365  -0.025542   0.000960  -0.001568
    26  C   -0.234331  -0.176722  -0.022644   0.026995  -0.098847  -0.000272
    27  C   -0.221770  -0.169401  -0.039468   0.002587  -0.027180   0.000003
    28  C   -0.005401  -0.052761  -0.002128  -0.000644  -0.004083   0.000000
    29  H   -0.000005   0.000005   0.000000   0.000000   0.000000   0.000000
    30  C   -0.000387   0.010785   0.000065   0.000254   0.001138   0.000000
    31  H   -0.000009   0.000005   0.000000   0.000000   0.000000   0.000000
    32  C    0.195985   0.064898   0.000342  -0.004353   0.014102   0.000004
    33  H    0.000115   0.000378   0.000000   0.000001  -0.000010   0.000000
    34  C    0.295380   0.186902   0.015942  -0.017921   0.074443   0.000039
    35  C    0.020117  -0.016367   0.015853   0.000036   0.003813  -0.000035
    36  H   -0.000034   0.000040  -0.000018   0.000000   0.000000   0.000000
    37  C    0.354945  -0.081690   0.042995  -0.002439   0.000219   0.000055
    38  S    0.109747   0.037044  -0.025907  -0.002376  -0.001540   0.000970
    39  H    0.000972   0.000012   0.000315  -0.000003   0.000000   0.004652
    40  H    0.009465  -0.007594  -0.000003   0.000314   0.004714   0.000000
             13         14         15         16         17         18
     1  N   -0.168947  -0.175895   0.186503   0.064821   0.000374   0.010861
     2  C   -0.224044  -0.239197   0.299012   0.196922   0.000117  -0.000290
     3  C   -0.736327  -0.651771   0.613368  -0.355189  -0.002280   0.014123
     4  C   -1.678589  -1.189505   0.892188   0.060046  -0.000331   0.006005
     5  C   -0.152227  -0.874439   0.441172  -0.386381   0.000172   0.047323
     6  C   -0.039359   0.241428  -0.040133  -0.006793   0.000014  -0.000124
     7  C    0.026960   0.249920  -0.134147   0.031008   0.000014  -0.006805
     8  N   -0.025783  -0.022933   0.013633   0.000292   0.000000   0.000149
     9  O    0.002534   0.026833  -0.017718  -0.004326   0.000001   0.000258
    10  O   -0.040298  -0.022992   0.016233   0.000342   0.000000   0.000065
    11  H    0.000003  -0.000279   0.000039   0.000004   0.000000   0.000000
    12  H   -0.026612  -0.097482   0.073519   0.013740  -0.000010   0.001122
    13  C   23.266470   5.214687  -8.516894  -0.966924   0.019144  -0.508326
    14  C    5.214687  21.673940  -9.592854  -0.772271   0.015940  -1.182120
    15  C   -8.516894  -9.592854  20.285777  -3.483856   0.002975   0.427028
    16  C   -0.966924  -0.772271  -3.483856  10.713307   0.309062   0.411796
    17  H    0.019144   0.015940   0.002975   0.309062   0.549336  -0.032089
    18  C   -0.508326  -1.182120   0.427028   0.411796  -0.032089   5.758218
    19  H    0.013280   0.035042   0.032545  -0.045034  -0.004429   0.293432
    20  C    0.620345  -2.038924  -1.889034  -0.560714   0.019930   0.738113
    21  H    0.093793   0.125954  -0.016259  -0.008451  -0.000140  -0.000535
    22  C   -5.892859  -2.767366   4.900015   0.503685  -0.015957   0.079436
    23  C   -3.544654  -1.749423   1.086594   0.359960   0.003163   0.083688
    24  H    0.079987   0.042484  -0.009148   0.001803   0.000000  -0.008256
    25  S   -0.779642  -0.137459   0.669820   0.089916  -0.000235  -0.021603
    26  C    0.014104   0.100844  -0.025466  -0.002669   0.000000   0.000069
    27  C    0.000692   0.014258  -0.003442  -0.001110   0.000000   0.000046
    28  C   -0.000184  -0.000344   0.000171  -0.000025   0.000000   0.000002
    29  H    0.000000   0.000000   0.000000   0.000000   0.000000   0.000000
    30  C    0.000046   0.000068  -0.000063   0.000000   0.000000   0.000000
    31  H    0.000000   0.000000   0.000000   0.000000   0.000000   0.000000
    32  C   -0.001107  -0.002669   0.001765   0.000166   0.000000   0.000000
    33  H    0.000000   0.000000   0.000000   0.000000   0.000000   0.000000
    34  C   -0.003403  -0.025587   0.006930   0.001766   0.000000  -0.000063
    35  C    0.000680   0.002596  -0.000847   0.000294   0.000000  -0.000017
    36  H    0.000000   0.000000   0.000000   0.000000   0.000000   0.000000
    37  C    0.020447   0.071528  -0.029260  -0.012979   0.000002   0.000838
    38  S   -0.001029  -0.013006   0.004532   0.002342   0.000000  -0.000077
    39  H    0.021284  -0.004773   0.227081   0.093213  -0.005441   0.001924
    40  H   -0.000004  -0.000003   0.000005   0.000000   0.000000   0.000000
             19         20         21         22         23         24
     1  N    0.000005  -0.052985   0.000005  -0.082885  -0.016114   0.000040
     2  C   -0.000009  -0.005353  -0.000005   0.352653   0.020230  -0.000033
     3  C    0.000132   0.155769   0.000643   1.272248  -0.097314  -0.007672
     4  C    0.000006  -0.337896   0.000233   0.556671   0.208183   0.002090
     5  C   -0.000030  -0.151605  -0.000008  -0.933970   0.106534  -0.000380
     6  C   -0.000001  -0.015293   0.000001  -0.665480   0.035857   0.000072
     7  C   -0.000002   0.028897   0.000002  -0.253019   0.088514   0.000265
     8  N    0.000000  -0.001967   0.000000  -0.091619   0.006780  -0.000002
     9  O    0.000000  -0.000651   0.000000  -0.002305   0.000044   0.000000
    10  O    0.000000  -0.002198   0.000000   0.042689   0.016045  -0.000018
    11  H    0.000000   0.000000   0.000000   0.000026  -0.000036   0.000000
    12  H    0.000000  -0.004075   0.000000  -0.000356   0.003841   0.000000
    13  C    0.013280   0.620345   0.093793  -5.892859  -3.544654   0.079987
    14  C    0.035042  -2.038924   0.125954  -2.767366  -1.749423   0.042484
    15  C    0.032545  -1.889034  -0.016259   4.900015   1.086594  -0.009148
    16  C   -0.045034  -0.560714  -0.008451   0.503685   0.359960   0.001803
    17  H   -0.004429   0.019930  -0.000140  -0.015957   0.003163   0.000000
    18  C    0.293432   0.738113  -0.000535   0.079436   0.083688  -0.008256
    19  H    0.550328  -0.002198  -0.004733   0.007834  -0.014922  -0.000003
    20  C   -0.002198  12.153261   0.177885  -2.522060  -0.250157  -0.083830
    21  H   -0.004733   0.177885   0.554892   0.019839  -0.088761   0.001951
    22  C    0.007834  -2.522060   0.019839  12.002294  -0.433901   0.045808
    23  C   -0.014922  -0.250157  -0.088761  -0.433901   9.812154   0.261905
    24  H   -0.000003  -0.083830   0.001951   0.045808   0.261905   0.495719
    25  S    0.000034  -0.407023   0.002995   0.505974   0.004435  -0.000324
    26  C    0.000000  -0.000350   0.000000   0.071230   0.002609   0.000000
    27  C    0.000000  -0.000184   0.000000   0.020482   0.000677   0.000000
    28  C    0.000000  -0.000010   0.000000  -0.002667   0.000059   0.000000
    29  H    0.000000   0.000000   0.000000   0.000000   0.000000   0.000000
    30  C    0.000000   0.000002   0.000000   0.000836  -0.000017   0.000000
    31  H    0.000000   0.000000   0.000000   0.000000   0.000000   0.000000
    32  C    0.000000  -0.000025   0.000000  -0.012931   0.000293   0.000000
    33  H    0.000000   0.000000   0.000000   0.000002   0.000000   0.000000
    34  C    0.000000   0.000171   0.000000  -0.029185  -0.000853   0.000000
    35  C    0.000000   0.000059   0.000000   0.003198  -0.000129   0.000000
    36  H    0.000000   0.000000   0.000000  -0.000001   0.000000   0.000000
    37  C    0.000000  -0.002662   0.000000   0.005180   0.003155  -0.000001
    38  S    0.000000   0.000292   0.000000  -0.007120  -0.000470   0.000000
    39  H   -0.000150  -0.018949   0.000015  -0.013738   0.006220   0.000001
    40  H    0.000000   0.000000   0.000000  -0.000111   0.000002   0.000000
             25         26         27         28         29         30
     1  N    0.037024  -0.022929  -0.025922  -0.001964   0.000000   0.000147
     2  C    0.110224   0.247141   0.021542   0.028708   0.000002  -0.006887
     3  C   -0.178643   0.241202  -0.036068  -0.014636   0.000001  -0.000201
     4  C    0.106569  -0.892190  -0.158291  -0.151909  -0.000008   0.047549
     5  C    0.067622  -1.173768  -1.666315  -0.331616   0.000233   0.005413
     6  C   -0.018514  -0.632343  -0.731835   0.148985   0.000647   0.015485
     7  C   -0.169103  -0.234331  -0.221770  -0.005401  -0.000005  -0.000387
     8  N    0.012485  -0.176722  -0.169401  -0.052761   0.000005   0.010785
     9  O   -0.002365  -0.022644  -0.039468  -0.002128   0.000000   0.000065
    10  O   -0.025542   0.026995   0.002587  -0.000644   0.000000   0.000254
    11  H    0.000960  -0.098847  -0.027180  -0.004083   0.000000   0.001138
    12  H   -0.001568  -0.000272   0.000003   0.000000   0.000000   0.000000
    13  C   -0.779642   0.014104   0.000692  -0.000184   0.000000   0.000046
    14  C   -0.137459   0.100844   0.014258  -0.000344   0.000000   0.000068
    15  C    0.669820  -0.025466  -0.003442   0.000171   0.000000  -0.000063
    16  C    0.089916  -0.002669  -0.001110  -0.000025   0.000000   0.000000
    17  H   -0.000235   0.000000   0.000000   0.000000   0.000000   0.000000
    18  C   -0.021603   0.000069   0.000046   0.000002   0.000000   0.000000
    19  H    0.000034   0.000000   0.000000   0.000000   0.000000   0.000000
    20  C   -0.407023  -0.000350  -0.000184  -0.000010   0.000000   0.000002
    21  H    0.002995   0.000000   0.000000   0.000000   0.000000   0.000000
    22  C    0.505974   0.071230   0.020482  -0.002667   0.000000   0.000836
    23  C    0.004435   0.002609   0.000677   0.000059   0.000000  -0.000017
    24  H   -0.000324   0.000000   0.000000   0.000000   0.000000   0.000000
    25  S   15.794397  -0.013157  -0.001057   0.000291   0.000000  -0.000076
    26  C   -0.013157  21.559944   5.161921  -2.062845   0.126037  -1.173168
    27  C   -0.001057   5.161921  23.196257   0.601019   0.093864  -0.505735
    28  C    0.000291  -2.062845   0.601019  12.091818   0.177704   0.740257
    29  H    0.000000   0.126037   0.093864   0.177704   0.554892  -0.000646
    30  C   -0.000076  -1.173168  -0.505735   0.740257  -0.000646   5.754693
    31  H    0.000000   0.034892   0.013492  -0.002477  -0.004731   0.293705
    32  C    0.002320  -0.768850  -0.961847  -0.569006  -0.008439   0.412582
    33  H    0.000000   0.016026   0.019217   0.019943  -0.000140  -0.032187
    34  C    0.004545  -9.506244  -8.468983  -1.842277  -0.016271   0.418874
    35  C   -0.000480  -1.749813  -3.528150  -0.222566  -0.088645   0.085127
    36  H    0.000000   0.042657   0.079929  -0.084514   0.001952  -0.008317
    37  C   -0.007026  -2.701676  -5.840227  -2.487264   0.019818   0.074550
    38  S   -0.001254  -0.128564  -0.770702  -0.406553   0.003026  -0.022011
    39  H    0.001312  -0.000003  -0.000004   0.000000   0.000000   0.000000
    40  H    0.000093  -0.004699   0.020939  -0.018948   0.000015   0.001837
             31         32         33         34         35         36
     1  N    0.000000   0.000315   0.000000   0.013736   0.006798  -0.000002
     2  C   -0.000002   0.031825   0.000014  -0.130423   0.088791   0.000273
     3  C   -0.000001  -0.006694   0.000014  -0.043156   0.034403   0.000073
     4  C   -0.000030  -0.384704   0.000175   0.450270   0.106457  -0.000376
     5  C    0.000006   0.060564  -0.000328   0.880148   0.202125   0.002135
     6  C    0.000129  -0.357570  -0.002281   0.613971  -0.090326  -0.007694
     7  C   -0.000009   0.195985   0.000115   0.295380   0.020117  -0.000034
     8  N    0.000005   0.064898   0.000378   0.186902  -0.016367   0.000040
     9  O    0.000000   0.000342   0.000000   0.015942   0.015853  -0.000018
    10  O    0.000000  -0.004353   0.000001  -0.017921   0.000036   0.000000
    11  H    0.000000   0.014102  -0.000010   0.074443   0.003813   0.000000
    12  H    0.000000   0.000004   0.000000   0.000039  -0.000035   0.000000
    13  C    0.000000  -0.001107   0.000000  -0.003403   0.000680   0.000000
    14  C    0.000000  -0.002669   0.000000  -0.025587   0.002596   0.000000
    15  C    0.000000   0.001765   0.000000   0.006930  -0.000847   0.000000
    16  C    0.000000   0.000166   0.000000   0.001766   0.000294   0.000000
    17  H    0.000000   0.000000   0.000000   0.000000   0.000000   0.000000
    18  C    0.000000   0.000000   0.000000  -0.000063  -0.000017   0.000000
    19  H    0.000000   0.000000   0.000000   0.000000   0.000000   0.000000
    20  C    0.000000  -0.000025   0.000000   0.000171   0.000059   0.000000
    21  H    0.000000   0.000000   0.000000   0.000000   0.000000   0.000000
    22  C    0.000000  -0.012931   0.000002  -0.029185   0.003198  -0.000001
    23  C    0.000000   0.000293   0.000000  -0.000853  -0.000129   0.000000
    24  H    0.000000   0.000000   0.000000   0.000000   0.000000   0.000000
    25  S    0.000000   0.002320   0.000000   0.004545  -0.000480   0.000000
    26  C    0.034892  -0.768850   0.016026  -9.506244  -1.749813   0.042657
    27  C    0.013492  -0.961847   0.019217  -8.468983  -3.528150   0.079929
    28  C   -0.002477  -0.569006   0.019943  -1.842277  -0.222566  -0.084514
    29  H   -0.004731  -0.008439  -0.000140  -0.016271  -0.088645   0.001952
    30  C    0.293705   0.412582  -0.032187   0.418874   0.085127  -0.008317
    31  H    0.550308  -0.044957  -0.004428   0.032422  -0.014885  -0.000003
    32  C   -0.044957  10.681144   0.308866  -3.452503   0.358062   0.001796
    33  H   -0.004428   0.308866   0.549307   0.003100   0.003155   0.000000
    34  C    0.032422  -3.452503   0.003100  20.170817   1.076976  -0.009139
    35  C   -0.014885   0.358062   0.003155   1.076976   9.797085   0.261839
    36  H   -0.000003   0.001796   0.000000  -0.009139   0.261839   0.495712
    37  C    0.007794   0.504980  -0.015945   4.831609  -0.447103   0.046258
    38  S    0.000033   0.090129  -0.000236   0.662206   0.000765  -0.000109
    39  H    0.000000   0.000000   0.000000   0.000005   0.000002   0.000000
    40  H   -0.000151   0.092776  -0.005443   0.227215   0.006198   0.000001
             37         38         39         40
     1  N   -0.091689   0.012665  -0.007426   0.000012
     2  C   -0.252912  -0.168225   0.009458   0.000928
     3  C   -0.661250  -0.018345  -0.021275   0.000863
     4  C   -0.927659   0.068336   0.004808  -0.003043
     5  C    0.546939   0.105314  -0.002954   0.004791
     6  C    1.263155  -0.181080   0.000880  -0.020734
     7  C    0.354945   0.109747   0.000972   0.009465
     8  N   -0.081690   0.037044   0.000012  -0.007594
     9  O    0.042995  -0.025907   0.000315  -0.000003
    10  O   -0.002439  -0.002376  -0.000003   0.000314
    11  H    0.000219  -0.001540   0.000000   0.004714
    12  H    0.000055   0.000970   0.004652   0.000000
    13  C    0.020447  -0.001029   0.021284  -0.000004
    14  C    0.071528  -0.013006  -0.004773  -0.000003
    15  C   -0.029260   0.004532   0.227081   0.000005
    16  C   -0.012979   0.002342   0.093213   0.000000
    17  H    0.000002   0.000000  -0.005441   0.000000
    18  C    0.000838  -0.000077   0.001924   0.000000
    19  H    0.000000   0.000000  -0.000150   0.000000
    20  C   -0.002662   0.000292  -0.018949   0.000000
    21  H    0.000000   0.000000   0.000015   0.000000
    22  C    0.005180  -0.007120  -0.013738  -0.000111
    23  C    0.003155  -0.000470   0.006220   0.000002
    24  H   -0.000001   0.000000   0.000001   0.000000
    25  S   -0.007026  -0.001254   0.001312   0.000093
    26  C   -2.701676  -0.128564  -0.000003  -0.004699
    27  C   -5.840227  -0.770702  -0.000004   0.020939
    28  C   -2.487264  -0.406553   0.000000  -0.018948
    29  H    0.019818   0.003026   0.000000   0.000015
    30  C    0.074550  -0.022011   0.000000   0.001837
    31  H    0.007794   0.000033   0.000000  -0.000151
    32  C    0.504980   0.090129   0.000000   0.092776
    33  H   -0.015945  -0.000236   0.000000  -0.005443
    34  C    4.831609   0.662206   0.000005   0.227215
    35  C   -0.447103   0.000765   0.000002   0.006198
    36  H    0.046258  -0.000109   0.000000   0.000001
    37  C   11.940172   0.502318  -0.000108  -0.013349
    38  S    0.502318  15.793780   0.000094   0.001306
    39  H   -0.000108   0.000094   0.569994   0.000000
    40  H   -0.013349   0.001306   0.000000   0.570141
 Mulliken atomic charges:
              1
     1  N   -0.418581
     2  C    0.485925
     3  C    0.601062
     4  C   -0.272472
     5  C   -0.270212
     6  C    0.602315
     7  C    0.485955
     8  N   -0.418224
     9  O   -0.546227
    10  O   -0.546239
    11  H    0.311687
    12  H    0.311884
    13  C   -0.087241
    14  C   -0.254230
    15  C   -0.421785
    16  C   -0.247766
    17  H    0.140666
    18  C   -0.114188
    19  H    0.138872
    20  C    0.453417
    21  H    0.140685
    22  C   -0.662569
    23  C    0.085810
    24  H    0.177541
    25  S    0.354055
    26  C   -0.254125
    27  C   -0.089230
    28  C    0.455868
    29  H    0.140689
    30  C   -0.113717
    31  H    0.138887
    32  C   -0.247258
    33  H    0.140685
    34  C   -0.421458
    35  C    0.084937
    36  H    0.177541
    37  C   -0.661719
    38  S    0.353706
    39  H    0.132585
    40  H    0.132468
 Sum of Mulliken atomic charges =   0.00000
 Mulliken charges with hydrogens summed into heavy atoms:
              1
     1  N   -0.106697
     2  C    0.485925
     3  C    0.601062
     4  C   -0.272472
     5  C   -0.270212
     6  C    0.602315
     7  C    0.485955
     8  N   -0.106538
     9  O   -0.546227
    10  O   -0.546239
    13  C   -0.087241
    14  C   -0.254230
    15  C   -0.289200
    16  C   -0.107100
    18  C    0.024684
    20  C    0.594102
    22  C   -0.662569
    23  C    0.263352
    25  S    0.354055
    26  C   -0.254125
    27  C   -0.089230
    28  C    0.596557
    30  C    0.025171
    32  C   -0.106573
    34  C   -0.288990
    35  C    0.262478
    37  C   -0.661719
    38  S    0.353706
 Sum of Mulliken charges with hydrogens summed into heavy atoms =   0.00000
 Electronic spatial extent (au):  <R**2>=          20638.3208
 Charge=              0.0000 electrons
 Dipole moment (field-independent basis, Debye):
    X=              0.1902    Y=             -0.1697    Z=              0.1052  Tot=              0.2757
 Quadrupole moment (field-independent basis, Debye-Ang):
   XX=           -174.8151   YY=           -176.5688   ZZ=           -123.8595
   XY=             -5.6457   XZ=            -14.8613   YZ=             14.4805
 Traceless Quadrupole moment (field-independent basis, Debye-Ang):
   XX=            -16.4006   YY=            -18.1543   ZZ=             34.5550
   XY=             -5.6457   XZ=            -14.8613   YZ=             14.4805
 Octapole moment (field-independent basis, Debye-Ang**2):
  XXX=          -1112.0305  YYY=           -520.3131  ZZZ=           -496.5038  XYY=           -361.9498
  XXY=           -174.9366  XXZ=           -288.0929  XZZ=           -267.6742  YZZ=            -61.0128
  YYZ=           -261.6816  XYZ=             23.1368
 Hexadecapole moment (field-independent basis, Debye-Ang**3):
 XXXX=          -7692.6340 YYYY=          -3606.0592 ZZZZ=         -15330.6611 XXXY=           -986.5386
 XXXZ=            581.3913 YYYX=          -1072.6923 YYYZ=          -2484.0991 ZZZX=            529.1172
 ZZZY=          -1668.8759 XXYY=          -1914.2210 XXZZ=          -3593.8849 YYZZ=          -3349.7228
 XXYZ=           -843.3222 YYXZ=            310.5322 ZZXY=             -7.0568
 N-N= 2.628663715990D+03 E-N=-9.714412671849D+03  KE= 1.888316437852D+03
 1\1\GINC-DLT13\SP\RTD-CAM-B3LYP-FC\6-31+G(d,p)\C22H12N2O2S2\NATHALIA.R
 OSA\06-Sep-2023\0\\# td=(nstates=10) cam-b3lyp/6-31+g(d,p) nosymm geom
 =connectivity\\Energy:\\0,1\N,0,1.355555,-0.433386,-0.076395\C,0,0.706
 675,-0.293545,1.182565\C,0,2.30566,0.563309,-0.314243\C,0,2.322644,1.3
 62367,0.824757\C,0,1.376792,0.855873,1.768728\C,0,1.496355,1.563046,2.
 961134\C,0,3.046131,2.463938,1.438682\N,0,2.511768,2.501091,2.757331\O
 ,0,-0.206973,-1.018922,1.562151\O,0,3.89652,3.245991,1.026185\H,0,2.67
 3427,3.303566,3.347883\H,0,0.952863,-1.019753,-0.79255\C,0,4.063776,0.
 151248,-3.625415\C,0,3.290879,-0.358562,-2.512107\C,0,2.925297,-1.7380
 98,-2.5179\C,0,3.268285,-2.532478,-3.588085\H,0,2.993851,-3.583169,-3.
 580458\C,0,3.993762,-2.012953,-4.701844\H,0,4.241187,-2.671592,-5.5287
 24\C,0,4.39553,-0.701136,-4.721379\H,0,4.968556,-0.303253,-5.553767\C,
 0,3.061554,0.633096,-1.527618\C,0,4.412177,1.48838,-3.454733\H,0,4.991
 121,2.108156,-4.126452\S,0,3.836186,2.129625,-1.983818\C,0,1.151938,1.
 911681,5.493276\C,0,0.124056,1.630182,6.473475\C,0,0.29551,2.033012,7.
 832117\H,0,-0.487427,1.822882,8.554882\C,0,1.451014,2.671414,8.206196\
 H,0,1.593551,2.982011,9.236713\C,0,2.486178,2.913598,7.254151\H,0,3.40
 622,3.387173,7.583641\C,0,2.352291,2.544937,5.935013\C,0,-0.956291,0.9
 47442,5.921001\H,0,-1.849749,0.609025,6.428661\C,0,0.799499,1.440322,4
 .205208\S,0,-0.749063,0.635874,4.257771\H,0,2.417505,-2.181449,-1.6694
 14\H,0,3.180576,2.70113,5.253927\\Version=EM64L-G09RevA.02\HF=-1901.35
 89624\RMSD=7.235e-09\PG=C01 [X(C22H12N2O2S2)]\\@


 Any fool can criticize, condemn, and complain -- and most do.
 -- Dale Carnegie
 Job cpu time:  0 days  4 hours 27 minutes 51.6 seconds.
 File lengths (MBytes):  RWF=    803 Int=      0 D2E=      0 Chk=    127 Scr=      1
 Normal termination of Gaussian 09 at Wed Sep  6 13:44:06 2023.
