 Entering Link 1 = C:\G09W\l1.exe PID=     12568.
  
 Copyright (c) 1988,1990,1992,1993,1995,1998,2003,2009,2010,
            Gaussian, Inc.  All Rights Reserved.
  
 This is part of the Gaussian(R) 09 program.  It is based on
 the Gaussian(R) 03 system (copyright 2003, Gaussian, Inc.),
 the Gaussian(R) 98 system (copyright 1998, Gaussian, Inc.),
 the Gaussian(R) 94 system (copyright 1995, Gaussian, Inc.),
 the Gaussian 92(TM) system (copyright 1992, Gaussian, Inc.),
 the Gaussian 90(TM) system (copyright 1990, Gaussian, Inc.),
 the Gaussian 88(TM) system (copyright 1988, Gaussian, Inc.),
 the Gaussian 86(TM) system (copyright 1986, Carnegie Mellon
 University), and the Gaussian 82(TM) system (copyright 1983,
 Carnegie Mellon University). Gaussian is a federally registered
 trademark of Gaussian, Inc.
  
 This software contains proprietary and confidential information,
 including trade secrets, belonging to Gaussian, Inc.
  
 This software is provided under written license and may be
 used, copied, transmitted, or stored only in accord with that
 written license.
  
 The following legend is applicable only to US Government
 contracts under FAR:
  
                    RESTRICTED RIGHTS LEGEND
  
 Use, reproduction and disclosure by the US Government is
 subject to restrictions as set forth in subparagraphs (a)
 and (c) of the Commercial Computer Software - Restricted
 Rights clause in FAR 52.227-19.
  
 Gaussian, Inc.
 340 Quinnipiac St., Bldg. 40, Wallingford CT 06492
  
  
 ---------------------------------------------------------------
 Warning -- This program may not be used in any manner that
 competes with the business of Gaussian, Inc. or will provide
 assistance to any competitor of Gaussian, Inc.  The licensee
 of this program is prohibited from giving any competitor of
 Gaussian, Inc. access to this program.  By using this program,
 the user acknowledges that Gaussian, Inc. is engaged in the
 business of creating and licensing software in the field of
 computational chemistry and represents and warrants to the
 licensee that it is not a competitor of Gaussian, Inc. and that
 it will not use this program in any manner prohibited above.
 ---------------------------------------------------------------
  

 Cite this work as:
 Gaussian 09, Revision B.01,
 M. J. Frisch, G. W. Trucks, H. B. Schlegel, G. E. Scuseria, 
 M. A. Robb, J. R. Cheeseman, G. Scalmani, V. Barone, B. Mennucci, 
 G. A. Petersson, H. Nakatsuji, M. Caricato, X. Li, H. P. Hratchian, 
 A. F. Izmaylov, J. Bloino, G. Zheng, J. L. Sonnenberg, M. Hada, 
 M. Ehara, K. Toyota, R. Fukuda, J. Hasegawa, M. Ishida, T. Nakajima, 
 Y. Honda, O. Kitao, H. Nakai, T. Vreven, J. A. Montgomery, Jr., 
 J. E. Peralta, F. Ogliaro, M. Bearpark, J. J. Heyd, E. Brothers, 
 K. N. Kudin, V. N. Staroverov, T. Keith, R. Kobayashi, J. Normand, 
 K. Raghavachari, A. Rendell, J. C. Burant, S. S. Iyengar, J. Tomasi, 
 M. Cossi, N. Rega, J. M. Millam, M. Klene, J. E. Knox, J. B. Cross, 
 V. Bakken, C. Adamo, J. Jaramillo, R. Gomperts, R. E. Stratmann, 
 O. Yazyev, A. J. Austin, R. Cammi, C. Pomelli, J. W. Ochterski, 
 R. L. Martin, K. Morokuma, V. G. Zakrzewski, G. A. Voth, 
 P. Salvador, J. J. Dannenberg, S. Dapprich, A. D. Daniels, 
 O. Farkas, J. B. Foresman, J. V. Ortiz, J. Cioslowski, 
 and D. J. Fox, Gaussian, Inc., Wallingford CT, 2010.
 
 ******************************************
 Gaussian 09:  IA32W-G09RevB.01 12-Aug-2010
                26-Sep-2023 
 ******************************************
 %nprocshared=6
 Will use up to    6 processors via shared memory.
 %chk=G:\Meu Drive\POS-DOC-IME\SUBSTITUINTES-DOADORES\DPP-substituido\DPP-SUB-6\D
 PP-SUB-6-ANION.chk
 ----------------------------------------------------
 # opt=tight freq b3lyp/6-31+g(d,p) geom=connectivity
 ----------------------------------------------------
 1/7=10,14=-1,18=20,19=15,26=3,38=1,57=2/1,3;
 2/9=110,12=2,17=6,18=5,40=1/2;
 3/5=1,6=6,7=111,11=2,16=1,25=1,30=1,71=1,74=-5/1,2,3;
 4//1;
 5/5=2,38=5/2;
 6/7=2,8=2,9=2,10=2,28=1/1;
 7//1,2,3,16;
 1/7=10,14=-1,18=20,19=15/3(2);
 2/9=110/2;
 99//99;
 2/9=110/2;
 3/5=1,6=6,7=111,11=2,16=1,25=1,30=1,71=1,74=-5/1,2,3;
 4/5=5,16=3/1;
 5/5=2,38=5/2;
 7//1,2,3,16;
 1/7=10,14=-1,18=20,19=15/3(-5);
 2/9=110/2;
 6/7=2,8=2,9=2,10=2,19=2,28=1/1;
 99/9=1/99;
 -------
 Energy:
 -------
 Symbolic Z-matrix:
 Charge = -1 Multiplicity = 2
 N                    -1.6052   -1.39151   0.00003 
 C                    -0.24992  -1.79776   0.00001 
 C                    -1.75605  -0.01349   0.00001 
 C                    -0.47528   0.53182  -0.00001 
 C                     0.47527  -0.53182   0. 
 C                     1.75605   0.01349  -0.00001 
 C                     0.24992   1.79777  -0.00004 
 N                     1.60521   1.39151  -0.00004 
 O                     0.11645  -2.9711    0.00004 
 O                    -0.11645   2.97111  -0.00005 
 H                     2.38599   2.03852  -0.00006 
 H                    -2.38598  -2.03853   0.00004 
 C                     4.28958   0.1092   -0.00003 
 C                     5.56313  -0.58885  -0.00002 
 C                     5.61094  -2.01104   0.00001 
 H                     6.56949  -2.51765   0.00001 
 C                     4.41595  -2.69095   0.00002 
 H                     4.4142   -3.77643   0.00003 
 C                     3.15968  -2.02115   0.00001 
 H                     2.25084  -2.61792   0.00003 
 C                     3.05343  -0.63422  -0.00001 
 S                     6.03815   1.76399  -0.00006 
 N                     4.42189   1.44162  -0.00006 
 N                     6.62207   0.23273  -0.00004 
 C                    -5.56313   0.58885   0.00004 
 C                    -4.28958  -0.1092    0.00003 
 C                    -3.05343   0.63422   0.00001 
 C                    -3.15968   2.02114  0. 
 H                    -2.25084   2.61792  -0.00002 
 C                    -4.41595   2.69095   0.00001 
 H                    -4.4142    3.77643  0. 
 C                    -5.61094   2.01104   0.00002 
 H                    -6.56949   2.51766   0.00003 
 S                    -6.03815  -1.764     0.00006 
 N                    -6.62207  -0.23273   0.00005 
 N                    -4.42189  -1.44162   0.00004 
 

 GradGradGradGradGradGradGradGradGradGradGradGradGradGradGradGradGradGrad
 Berny optimization.
 Initialization pass.
                           ----------------------------
                           !    Initial Parameters    !
                           ! (Angstroms and Degrees)  !
 --------------------------                            --------------------------
 ! Name  Definition              Value          Derivative Info.                !
 --------------------------------------------------------------------------------
 ! R1    R(1,2)                  1.4149         estimate D2E/DX2                !
 ! R2    R(1,3)                  1.3863         estimate D2E/DX2                !
 ! R3    R(1,12)                 1.014          estimate D2E/DX2                !
 ! R4    R(2,5)                  1.4589         estimate D2E/DX2                !
 ! R5    R(2,9)                  1.2292         estimate D2E/DX2                !
 ! R6    R(3,4)                  1.392          estimate D2E/DX2                !
 ! R7    R(3,27)                 1.4501         estimate D2E/DX2                !
 ! R8    R(4,5)                  1.4265         estimate D2E/DX2                !
 ! R9    R(4,7)                  1.4589         estimate D2E/DX2                !
 ! R10   R(5,6)                  1.392          estimate D2E/DX2                !
 ! R11   R(6,8)                  1.3863         estimate D2E/DX2                !
 ! R12   R(6,21)                 1.4501         estimate D2E/DX2                !
 ! R13   R(7,8)                  1.4149         estimate D2E/DX2                !
 ! R14   R(7,10)                 1.2292         estimate D2E/DX2                !
 ! R15   R(8,11)                 1.014          estimate D2E/DX2                !
 ! R16   R(13,14)                1.4523         estimate D2E/DX2                !
 ! R17   R(13,21)                1.4425         estimate D2E/DX2                !
 ! R18   R(13,23)                1.339          estimate D2E/DX2                !
 ! R19   R(14,15)                1.423          estimate D2E/DX2                !
 ! R20   R(14,24)                1.3403         estimate D2E/DX2                !
 ! R21   R(15,16)                1.0842         estimate D2E/DX2                !
 ! R22   R(15,17)                1.3749         estimate D2E/DX2                !
 ! R23   R(17,18)                1.0855         estimate D2E/DX2                !
 ! R24   R(17,19)                1.4237         estimate D2E/DX2                !
 ! R25   R(19,20)                1.0873         estimate D2E/DX2                !
 ! R26   R(19,21)                1.391          estimate D2E/DX2                !
 ! R27   R(22,23)                1.6481         estimate D2E/DX2                !
 ! R28   R(22,24)                1.6388         estimate D2E/DX2                !
 ! R29   R(25,26)                1.4523         estimate D2E/DX2                !
 ! R30   R(25,32)                1.423          estimate D2E/DX2                !
 ! R31   R(25,35)                1.3403         estimate D2E/DX2                !
 ! R32   R(26,27)                1.4425         estimate D2E/DX2                !
 ! R33   R(26,36)                1.339          estimate D2E/DX2                !
 ! R34   R(27,28)                1.391          estimate D2E/DX2                !
 ! R35   R(28,29)                1.0873         estimate D2E/DX2                !
 ! R36   R(28,30)                1.4237         estimate D2E/DX2                !
 ! R37   R(30,31)                1.0855         estimate D2E/DX2                !
 ! R38   R(30,32)                1.3749         estimate D2E/DX2                !
 ! R39   R(32,33)                1.0842         estimate D2E/DX2                !
 ! R40   R(34,35)                1.6388         estimate D2E/DX2                !
 ! R41   R(34,36)                1.6481         estimate D2E/DX2                !
 ! A1    A(2,1,3)              112.9333         estimate D2E/DX2                !
 ! A2    A(2,1,12)             123.6659         estimate D2E/DX2                !
 ! A3    A(3,1,12)             123.4008         estimate D2E/DX2                !
 ! A4    A(1,2,5)              103.1197         estimate D2E/DX2                !
 ! A5    A(1,2,9)              124.0266         estimate D2E/DX2                !
 ! A6    A(5,2,9)              132.8536         estimate D2E/DX2                !
 ! A7    A(1,3,4)              106.8156         estimate D2E/DX2                !
 ! A8    A(1,3,27)             122.7777         estimate D2E/DX2                !
 ! A9    A(4,3,27)             130.4067         estimate D2E/DX2                !
 ! A10   A(3,4,5)              108.7238         estimate D2E/DX2                !
 ! A11   A(3,4,7)              142.8687         estimate D2E/DX2                !
 ! A12   A(5,4,7)              108.4074         estimate D2E/DX2                !
 ! A13   A(2,5,4)              108.4075         estimate D2E/DX2                !
 ! A14   A(2,5,6)              142.8685         estimate D2E/DX2                !
 ! A15   A(4,5,6)              108.724          estimate D2E/DX2                !
 ! A16   A(5,6,8)              106.8155         estimate D2E/DX2                !
 ! A17   A(5,6,21)             130.4068         estimate D2E/DX2                !
 ! A18   A(8,6,21)             122.7776         estimate D2E/DX2                !
 ! A19   A(4,7,8)              103.1198         estimate D2E/DX2                !
 ! A20   A(4,7,10)             132.8536         estimate D2E/DX2                !
 ! A21   A(8,7,10)             124.0267         estimate D2E/DX2                !
 ! A22   A(6,8,7)              112.9333         estimate D2E/DX2                !
 ! A23   A(6,8,11)             123.4003         estimate D2E/DX2                !
 ! A24   A(7,8,11)             123.6664         estimate D2E/DX2                !
 ! A25   A(14,13,21)           120.2497         estimate D2E/DX2                !
 ! A26   A(14,13,23)           113.0565         estimate D2E/DX2                !
 ! A27   A(21,13,23)           126.6938         estimate D2E/DX2                !
 ! A28   A(13,14,15)           120.6529         estimate D2E/DX2                !
 ! A29   A(13,14,24)           113.4666         estimate D2E/DX2                !
 ! A30   A(15,14,24)           125.8805         estimate D2E/DX2                !
 ! A31   A(14,15,16)           119.7828         estimate D2E/DX2                !
 ! A32   A(14,15,17)           117.7129         estimate D2E/DX2                !
 ! A33   A(16,15,17)           122.5043         estimate D2E/DX2                !
 ! A34   A(15,17,18)           119.7309         estimate D2E/DX2                !
 ! A35   A(15,17,19)           122.2965         estimate D2E/DX2                !
 ! A36   A(18,17,19)           117.9726         estimate D2E/DX2                !
 ! A37   A(17,19,20)           118.6449         estimate D2E/DX2                !
 ! A38   A(17,19,21)           122.4459         estimate D2E/DX2                !
 ! A39   A(20,19,21)           118.9093         estimate D2E/DX2                !
 ! A40   A(6,21,13)            122.4466         estimate D2E/DX2                !
 ! A41   A(6,21,19)            120.9114         estimate D2E/DX2                !
 ! A42   A(13,21,19)           116.642          estimate D2E/DX2                !
 ! A43   A(23,22,24)            99.5934         estimate D2E/DX2                !
 ! A44   A(13,23,22)           106.9509         estimate D2E/DX2                !
 ! A45   A(14,24,22)           106.9326         estimate D2E/DX2                !
 ! A46   A(26,25,32)           120.6529         estimate D2E/DX2                !
 ! A47   A(26,25,35)           113.4666         estimate D2E/DX2                !
 ! A48   A(32,25,35)           125.8805         estimate D2E/DX2                !
 ! A49   A(25,26,27)           120.2496         estimate D2E/DX2                !
 ! A50   A(25,26,36)           113.0566         estimate D2E/DX2                !
 ! A51   A(27,26,36)           126.6938         estimate D2E/DX2                !
 ! A52   A(3,27,26)            122.4465         estimate D2E/DX2                !
 ! A53   A(3,27,28)            120.9115         estimate D2E/DX2                !
 ! A54   A(26,27,28)           116.642          estimate D2E/DX2                !
 ! A55   A(27,28,29)           118.9093         estimate D2E/DX2                !
 ! A56   A(27,28,30)           122.4459         estimate D2E/DX2                !
 ! A57   A(29,28,30)           118.6448         estimate D2E/DX2                !
 ! A58   A(28,30,31)           117.9727         estimate D2E/DX2                !
 ! A59   A(28,30,32)           122.2966         estimate D2E/DX2                !
 ! A60   A(31,30,32)           119.7308         estimate D2E/DX2                !
 ! A61   A(25,32,30)           117.713          estimate D2E/DX2                !
 ! A62   A(25,32,33)           119.7829         estimate D2E/DX2                !
 ! A63   A(30,32,33)           122.5041         estimate D2E/DX2                !
 ! A64   A(35,34,36)            99.5934         estimate D2E/DX2                !
 ! A65   A(25,35,34)           106.9326         estimate D2E/DX2                !
 ! A66   A(26,36,34)           106.9509         estimate D2E/DX2                !
 ! D1    D(3,1,2,5)              0.0007         estimate D2E/DX2                !
 ! D2    D(3,1,2,9)            179.9994         estimate D2E/DX2                !
 ! D3    D(12,1,2,5)          -179.9998         estimate D2E/DX2                !
 ! D4    D(12,1,2,9)            -0.0011         estimate D2E/DX2                !
 ! D5    D(2,1,3,4)             -0.0006         estimate D2E/DX2                !
 ! D6    D(2,1,3,27)           179.9999         estimate D2E/DX2                !
 ! D7    D(12,1,3,4)           179.9999         estimate D2E/DX2                !
 ! D8    D(12,1,3,27)            0.0004         estimate D2E/DX2                !
 ! D9    D(1,2,5,4)             -0.0005         estimate D2E/DX2                !
 ! D10   D(1,2,5,6)            179.9999         estimate D2E/DX2                !
 ! D11   D(9,2,5,4)           -179.9991         estimate D2E/DX2                !
 ! D12   D(9,2,5,6)              0.0013         estimate D2E/DX2                !
 ! D13   D(1,3,4,5)              0.0002         estimate D2E/DX2                !
 ! D14   D(1,3,4,7)            179.9996         estimate D2E/DX2                !
 ! D15   D(27,3,4,5)           179.9997         estimate D2E/DX2                !
 ! D16   D(27,3,4,7)            -0.001          estimate D2E/DX2                !
 ! D17   D(1,3,27,26)           -0.0004         estimate D2E/DX2                !
 ! D18   D(1,3,27,28)          179.9995         estimate D2E/DX2                !
 ! D19   D(4,3,27,26)         -179.9998         estimate D2E/DX2                !
 ! D20   D(4,3,27,28)            0.0002         estimate D2E/DX2                !
 ! D21   D(3,4,5,2)              0.0002         estimate D2E/DX2                !
 ! D22   D(3,4,5,6)            180.0            estimate D2E/DX2                !
 ! D23   D(7,4,5,2)           -179.9994         estimate D2E/DX2                !
 ! D24   D(7,4,5,6)              0.0004         estimate D2E/DX2                !
 ! D25   D(3,4,7,8)           -179.9996         estimate D2E/DX2                !
 ! D26   D(3,4,7,10)             0.0008         estimate D2E/DX2                !
 ! D27   D(5,4,7,8)             -0.0002         estimate D2E/DX2                !
 ! D28   D(5,4,7,10)          -179.9998         estimate D2E/DX2                !
 ! D29   D(2,5,6,8)            179.9992         estimate D2E/DX2                !
 ! D30   D(2,5,6,21)            -0.0005         estimate D2E/DX2                !
 ! D31   D(4,5,6,8)             -0.0004         estimate D2E/DX2                !
 ! D32   D(4,5,6,21)           179.9998         estimate D2E/DX2                !
 ! D33   D(5,6,8,7)              0.0002         estimate D2E/DX2                !
 ! D34   D(5,6,8,11)          -179.9994         estimate D2E/DX2                !
 ! D35   D(21,6,8,7)          -180.0            estimate D2E/DX2                !
 ! D36   D(21,6,8,11)            0.0004         estimate D2E/DX2                !
 ! D37   D(5,6,21,13)          179.9998         estimate D2E/DX2                !
 ! D38   D(5,6,21,19)           -0.0002         estimate D2E/DX2                !
 ! D39   D(8,6,21,13)            0.0001         estimate D2E/DX2                !
 ! D40   D(8,6,21,19)         -179.9999         estimate D2E/DX2                !
 ! D41   D(4,7,8,6)              0.0            estimate D2E/DX2                !
 ! D42   D(4,7,8,11)           179.9996         estimate D2E/DX2                !
 ! D43   D(10,7,8,6)           179.9996         estimate D2E/DX2                !
 ! D44   D(10,7,8,11)           -0.0007         estimate D2E/DX2                !
 ! D45   D(21,13,14,15)          0.0            estimate D2E/DX2                !
 ! D46   D(21,13,14,24)        179.9999         estimate D2E/DX2                !
 ! D47   D(23,13,14,15)       -180.0            estimate D2E/DX2                !
 ! D48   D(23,13,14,24)          0.0            estimate D2E/DX2                !
 ! D49   D(14,13,21,6)         179.9999         estimate D2E/DX2                !
 ! D50   D(14,13,21,19)         -0.0001         estimate D2E/DX2                !
 ! D51   D(23,13,21,6)          -0.0002         estimate D2E/DX2                !
 ! D52   D(23,13,21,19)        179.9999         estimate D2E/DX2                !
 ! D53   D(14,13,23,22)         -0.0003         estimate D2E/DX2                !
 ! D54   D(21,13,23,22)        179.9997         estimate D2E/DX2                !
 ! D55   D(13,14,15,16)       -179.9998         estimate D2E/DX2                !
 ! D56   D(13,14,15,17)          0.0002         estimate D2E/DX2                !
 ! D57   D(24,14,15,16)          0.0003         estimate D2E/DX2                !
 ! D58   D(24,14,15,17)       -179.9997         estimate D2E/DX2                !
 ! D59   D(13,14,24,22)          0.0004         estimate D2E/DX2                !
 ! D60   D(15,14,24,22)       -179.9997         estimate D2E/DX2                !
 ! D61   D(14,15,17,18)        179.9997         estimate D2E/DX2                !
 ! D62   D(14,15,17,19)         -0.0003         estimate D2E/DX2                !
 ! D63   D(16,15,17,18)         -0.0004         estimate D2E/DX2                !
 ! D64   D(16,15,17,19)        179.9997         estimate D2E/DX2                !
 ! D65   D(15,17,19,20)        180.0            estimate D2E/DX2                !
 ! D66   D(15,17,19,21)          0.0002         estimate D2E/DX2                !
 ! D67   D(18,17,19,20)          0.0            estimate D2E/DX2                !
 ! D68   D(18,17,19,21)       -179.9997         estimate D2E/DX2                !
 ! D69   D(17,19,21,6)        -180.0            estimate D2E/DX2                !
 ! D70   D(17,19,21,13)          0.0            estimate D2E/DX2                !
 ! D71   D(20,19,21,6)           0.0003         estimate D2E/DX2                !
 ! D72   D(20,19,21,13)       -179.9997         estimate D2E/DX2                !
 ! D73   D(24,22,23,13)          0.0005         estimate D2E/DX2                !
 ! D74   D(23,22,24,14)         -0.0005         estimate D2E/DX2                !
 ! D75   D(32,25,26,27)          0.0            estimate D2E/DX2                !
 ! D76   D(32,25,26,36)       -180.0            estimate D2E/DX2                !
 ! D77   D(35,25,26,27)       -179.9999         estimate D2E/DX2                !
 ! D78   D(35,25,26,36)          0.0            estimate D2E/DX2                !
 ! D79   D(26,25,32,30)          0.0001         estimate D2E/DX2                !
 ! D80   D(26,25,32,33)        179.9998         estimate D2E/DX2                !
 ! D81   D(35,25,32,30)       -180.0            estimate D2E/DX2                !
 ! D82   D(35,25,32,33)         -0.0003         estimate D2E/DX2                !
 ! D83   D(26,25,35,34)          0.0            estimate D2E/DX2                !
 ! D84   D(32,25,35,34)       -180.0            estimate D2E/DX2                !
 ! D85   D(25,26,27,3)         179.9999         estimate D2E/DX2                !
 ! D86   D(25,26,27,28)         -0.0001         estimate D2E/DX2                !
 ! D87   D(36,26,27,3)          -0.0001         estimate D2E/DX2                !
 ! D88   D(36,26,27,28)        179.9999         estimate D2E/DX2                !
 ! D89   D(25,26,36,34)         -0.0001         estimate D2E/DX2                !
 ! D90   D(27,26,36,34)        179.9999         estimate D2E/DX2                !
 ! D91   D(3,27,28,29)           0.0003         estimate D2E/DX2                !
 ! D92   D(3,27,28,30)        -179.9999         estimate D2E/DX2                !
 ! D93   D(26,27,28,29)       -179.9997         estimate D2E/DX2                !
 ! D94   D(26,27,28,30)          0.0001         estimate D2E/DX2                !
 ! D95   D(27,28,30,31)        179.9999         estimate D2E/DX2                !
 ! D96   D(27,28,30,32)          0.0            estimate D2E/DX2                !
 ! D97   D(29,28,30,31)         -0.0002         estimate D2E/DX2                !
 ! D98   D(29,28,30,32)        179.9998         estimate D2E/DX2                !
 ! D99   D(28,30,32,25)         -0.0001         estimate D2E/DX2                !
 ! D100  D(28,30,32,33)       -179.9998         estimate D2E/DX2                !
 ! D101  D(31,30,32,25)        180.0            estimate D2E/DX2                !
 ! D102  D(31,30,32,33)          0.0003         estimate D2E/DX2                !
 ! D103  D(36,34,35,25)          0.0            estimate D2E/DX2                !
 ! D104  D(35,34,36,26)          0.0            estimate D2E/DX2                !
 --------------------------------------------------------------------------------
 Trust Radius=3.00D-01 FncErr=1.00D-07 GrdErr=1.00D-06
 Number of steps in this run=    216 maximum allowed number of steps=    216.
 GradGradGradGradGradGradGradGradGradGradGradGradGradGradGradGradGradGrad

                          Input orientation:                          
 ---------------------------------------------------------------------
 Center     Atomic      Atomic             Coordinates (Angstroms)
 Number     Number       Type             X           Y           Z
 ---------------------------------------------------------------------
      1          7           0       -1.605204   -1.391513    0.000026
      2          6           0       -0.249917   -1.797763    0.000014
      3          6           0       -1.756051   -0.013494    0.000005
      4          6           0       -0.475275    0.531818   -0.000008
      5          6           0        0.475273   -0.531815    0.000000
      6          6           0        1.756051    0.013494   -0.000014
      7          6           0        0.249917    1.797766   -0.000037
      8          7           0        1.605206    1.391514   -0.000039
      9          8           0        0.116446   -2.971104    0.000039
     10          8           0       -0.116446    2.971106   -0.000050
     11          1           0        2.385990    2.038521   -0.000062
     12          1           0       -2.385980   -2.038528    0.000040
     13          6           0        4.289577    0.109197   -0.000030
     14          6           0        5.563126   -0.588845   -0.000022
     15          6           0        5.610937   -2.011041    0.000005
     16          1           0        6.569487   -2.517654    0.000014
     17          6           0        4.415952   -2.690946    0.000019
     18          1           0        4.414200   -3.776432    0.000034
     19          6           0        3.159684   -2.021145    0.000014
     20          1           0        2.250843   -2.617916    0.000025
     21          6           0        3.053434   -0.634223   -0.000010
     22         16           0        6.038154    1.763993   -0.000062
     23          7           0        4.421890    1.441622   -0.000057
     24          7           0        6.622069    0.232731   -0.000044
     25          6           0       -5.563127    0.588845    0.000035
     26          6           0       -4.289578   -0.109199    0.000028
     27          6           0       -3.053432    0.634223    0.000010
     28          6           0       -3.159683    2.021144   -0.000002
     29          1           0       -2.250843    2.617916   -0.000020
     30          6           0       -4.415951    2.690945    0.000005
     31          1           0       -4.414200    3.776431   -0.000004
     32          6           0       -5.610936    2.011041    0.000024
     33          1           0       -6.569485    2.517657    0.000026
     34         16           0       -6.038155   -1.763995    0.000060
     35          7           0       -6.622071   -0.232730    0.000053
     36          7           0       -4.421890   -1.441623    0.000040
 ---------------------------------------------------------------------
                    Distance matrix (angstroms):
                    1          2          3          4          5
     1  N    0.000000
     2  C    1.414865   0.000000
     3  C    1.386251   2.334964   0.000000
     4  C    2.230682   2.340456   1.392032   0.000000
     5  C    2.251103   1.458946   2.290734   1.426484   0.000000
     6  C    3.643087   2.702695   3.512206   2.290737   1.392032
     7  C    3.689576   3.630105   2.702697   1.458947   2.340456
     8  N    4.248761   3.689576   3.643089   2.251106   2.230682
     9  O    2.336490   1.229207   3.500529   3.552548   2.465540
    10  O    4.609647   4.770736   3.405311   2.465539   3.552547
    11  H    5.262581   4.654576   4.622474   3.233727   3.202728
    12  H    1.014021   2.149589   2.120748   3.202729   3.233721
    13  C    6.082810   4.923769   6.046873   4.783558   3.867792
    14  C    7.213129   5.937420   7.341756   6.141512   5.088173
    15  C    7.242686   5.864733   7.633001   6.596068   5.344451
    16  H    8.251895   6.857296   8.693986   7.676454   6.409602
    17  C    6.159776   4.750590   6.727731   5.857500   4.493417
    18  H    6.474648   5.066470   7.227150   6.516746   5.103203
    19  C    4.806308   3.416911   5.309907   4.441908   3.069880
    20  H    4.046377   2.631815   4.778934   4.165638   2.739428
    21  C    4.719788   3.502278   4.849376   3.716374   2.580194
    22  S    8.269108   7.226752   7.994316   6.628953   6.018005
    23  N    6.659768   5.685015   6.346993   4.980961   4.412509
    24  N    8.386071   7.165689   8.381737   7.103643   6.194161
    25  C    4.425717   5.824611   3.854431   5.088172   6.141511
    26  C    2.974927   4.378368   2.535334   3.867791   4.783556
    27  C    2.490175   3.711368   1.450081   2.580190   3.716370
    28  C    3.750018   4.801124   2.471828   3.069876   4.441903
    29  H    4.061080   4.847878   2.677525   2.739424   4.165635
    30  C    4.956487   6.124079   3.793291   4.493413   5.857496
    31  H    5.882015   6.957937   4.629178   5.103199   6.516742
    32  C    5.255784   6.576284   4.354180   5.344447   6.596064
    33  H    6.318678   7.652437   5.438370   6.409598   7.676451
    34  S    4.448573   5.788336   4.626086   6.018006   6.628953
    35  N    5.148955   6.561530   4.870956   6.194161   7.103643
    36  N    2.817132   4.187146   3.024277   4.412509   4.980959
                    6          7          8          9         10
     6  C    0.000000
     7  C    2.334966   0.000000
     8  N    1.386252   1.414867   0.000000
     9  O    3.405309   4.770737   4.609647   0.000000
    10  O    3.500530   1.229206   2.336492   5.946772   0.000000
    11  H    2.120745   2.149598   1.014023   5.499743   2.670562
    12  H    4.622469   4.654579   5.262581   2.670549   5.499747
    13  C    2.535333   4.378369   2.974926   5.186837   5.253909
    14  C    3.854430   5.824612   4.425715   5.944870   6.703043
    15  C    4.354181   6.576287   5.255784   5.577737   7.591094
    16  H    5.438371   7.652438   6.318677   6.468953   8.650329
    17  C    3.793293   6.124082   4.956488   4.308624   7.252687
    18  H    4.629179   6.957941   5.882016   4.372556   8.127486
    19  C    2.471830   4.801127   3.750019   3.188059   5.971231
    20  H    2.677525   4.847881   4.061081   2.163421   6.069697
    21  C    1.450083   3.711371   2.490176   3.753253   4.800681
    22  S    4.626084   5.788336   4.448569   7.582069   6.271860
    23  N    3.024276   4.187147   2.817130   6.165144   4.789135
    24  N    4.870954   6.561528   5.148951   7.251737   7.273670
    25  C    7.341757   5.937421   7.213132   6.703043   5.944872
    26  C    6.046874   4.923772   6.082813   5.253908   5.186840
    27  C    4.849374   3.502277   4.719788   4.800678   3.753253
    28  C    5.309906   3.416909   4.806308   5.971228   3.188059
    29  H    4.778934   2.631814   4.046378   6.069695   2.163422
    30  C    6.727730   4.750589   6.159777   7.252684   4.308623
    31  H    7.227150   5.066468   6.474649   8.127483   4.372555
    32  C    7.633000   5.864732   7.242687   7.591092   5.577737
    33  H    8.693985   6.857294   8.251895   8.650328   6.468951
    34  S    7.994318   7.226755   8.269111   6.271860   7.582072
    35  N    8.381739   7.165691   8.386075   7.273672   7.251739
    36  N    6.346993   5.685017   6.659771   4.789134   6.165146
                   11         12         13         14         15
    11  H    0.000000
    12  H    6.276466   0.000000
    13  C    2.710338   7.012545   0.000000
    14  C    4.122772   8.080215   1.452305   0.000000
    15  C    5.176798   7.996964   2.498280   1.422999   0.000000
    16  H    6.185497   8.968275   3.478266   2.175561   1.084193
    17  C    5.146708   6.833149   2.802993   2.394752   1.374867
    18  H    6.158516   7.018743   3.887627   3.388324   2.132788
    19  C    4.132734   5.545691   2.411434   2.797859   2.451274
    20  H    4.658398   4.672881   3.404935   3.884372   3.414459
    21  C    2.754822   5.617766   1.442471   2.510102   2.904557
    22  S    3.662467   9.242575   2.407462   2.400312   3.799131
    23  N    2.121598   7.645818   1.338978   2.329209   3.651673
    24  N    4.604915   9.289971   2.335761   1.340279   2.461077
    25  C    8.080224   4.122784   9.864372  11.188407  11.472537
    26  C    7.012554   2.710350   8.581934   9.864372  10.081528
    27  C    5.617772   2.754830   7.361755   8.702929   9.059178
    28  C    5.545700   4.132742   7.690710   9.104913   9.653097
    29  H    4.672892   4.658405   7.005053   8.446385   9.123312
    30  C    6.833159   5.146717   9.080289  10.504237  11.074618
    31  H    7.018755   6.158525   9.444805  10.890485  11.575759
    32  C    7.996973   5.176809  10.081526  11.472535  11.920888
    33  H    8.968283   6.185510  11.122945  12.524001  12.995068
    34  S    9.242583   3.662479  10.496232  11.660647  11.651711
    35  N    9.289981   4.604929  10.917004  12.190400  12.361589
    36  N    7.645825   2.121609   8.848429  10.021366  10.048973
                   16         17         18         19         20
    16  H    0.000000
    17  C    2.160496   0.000000
    18  H    2.495954   1.085487   0.000000
    19  C    3.445762   1.423672   2.157508   0.000000
    20  H    4.319808   2.166340   2.454032   1.087257   0.000000
    21  C    3.988727   2.467096   3.424202   1.390986   2.139904
    22  S    4.314489   4.741099   5.773520   4.755298   5.791792
    23  N    4.504225   4.132572   5.218060   3.685637   4.603617
    24  N    2.750888   3.662627   4.576907   4.131352   5.218602
    25  C   12.524003  10.504239  10.890487   9.104915   8.446386
    26  C   11.122947   9.080290   9.444805   7.690711   7.005053
    27  C   10.125952   8.176090   8.672912   6.756759   6.221876
    28  C   10.735802   8.921549   9.538113   7.501633   7.127038
    29  H   10.206483   8.522334   9.236367   7.127039   6.905006
    30  C   12.157687  10.342498  10.945252   8.921549   8.522332
    31  H   12.659261  10.945252  11.618364   9.538113   9.236367
    32  C   12.995068  11.074618  11.575759   9.653098   9.123311
    33  H   14.070783  12.157688  12.659261  10.735802  10.206483
    34  S   12.630148  10.495122  10.644324   9.201433   8.332867
    35  N   13.387983  11.308438  11.591251   9.943901   9.187911
    36  N   11.043922   8.925708   9.139356   7.603691   6.775620
                   21         22         23         24         25
    21  C    0.000000
    22  S    3.828837   0.000000
    23  N    2.486323   1.648100   0.000000
    24  N    3.672433   1.638817   2.510419   0.000000
    25  C    8.702932  11.660647  10.021367  12.190399   0.000000
    26  C    7.361758  10.496232   8.848430  10.917003   1.452306
    27  C    6.237208   9.161513   7.518799   9.683828   2.510105
    28  C    6.756759   9.201431   7.603690   9.943897   2.797861
    29  H    6.221878   8.332866   6.775621   9.187909   3.884373
    30  C    8.176090  10.495120   8.925707  11.308435   2.394752
    31  H    8.672913  10.644323   9.139356  11.591249   3.388324
    32  C    9.059179  11.651709  10.048972  12.361586   1.422999
    33  H   10.125953  12.630145  11.043920  13.387979   2.175562
    34  S    9.161516  12.581094  10.940225  12.816715   2.400314
    35  N    9.683832  12.816716  11.170162  13.252317   1.340279
    36  N    7.518801  10.940224   9.301911  11.170161   2.329211
                   26         27         28         29         30
    26  C    0.000000
    27  C    1.442475   0.000000
    28  C    2.411436   1.390985   0.000000
    29  H    3.404937   2.139904   1.087257   0.000000
    30  C    2.802994   2.467096   1.423672   2.166339   0.000000
    31  H    3.887628   3.424202   2.157509   2.454031   1.085487
    32  C    2.498280   2.904558   2.451274   3.414458   1.374867
    33  H    3.478268   3.988728   3.445762   4.319806   2.160495
    34  S    2.407462   3.828841   4.755300   5.791794   4.741101
    35  N    2.335762   3.672437   4.131353   5.218603   3.662628
    36  N    1.338977   2.486325   3.685637   4.603618   4.132572
                   31         32         33         34         35
    31  H    0.000000
    32  C    2.132787   0.000000
    33  H    2.495950   1.084194   0.000000
    34  S    5.773521   3.799133   4.314494   0.000000
    35  N    4.576906   2.461077   2.750890   1.638820   0.000000
    36  N    5.218060   3.651673   4.504227   1.648101   2.510422
                   36
    36  N    0.000000
 Stoichiometry    C18H8N6O2S2(1-,2)
 Framework group  C1[X(C18H8N6O2S2)]
 Deg. of freedom   102
 Full point group                 C1      NOp   1
 Largest Abelian subgroup         C1      NOp   1
 Largest concise Abelian subgroup C1      NOp   1
                         Standard orientation:                         
 ---------------------------------------------------------------------
 Center     Atomic      Atomic             Coordinates (Angstroms)
 Number     Number       Type             X           Y           Z
 ---------------------------------------------------------------------
      1          7           0       -1.605204   -1.391513    0.000026
      2          6           0       -0.249917   -1.797763    0.000014
      3          6           0       -1.756051   -0.013494    0.000005
      4          6           0       -0.475275    0.531818   -0.000008
      5          6           0        0.475273   -0.531815    0.000000
      6          6           0        1.756051    0.013494   -0.000014
      7          6           0        0.249917    1.797766   -0.000037
      8          7           0        1.605206    1.391514   -0.000039
      9          8           0        0.116446   -2.971104    0.000039
     10          8           0       -0.116446    2.971106   -0.000050
     11          1           0        2.385990    2.038521   -0.000062
     12          1           0       -2.385980   -2.038528    0.000040
     13          6           0        4.289577    0.109197   -0.000030
     14          6           0        5.563126   -0.588845   -0.000022
     15          6           0        5.610937   -2.011041    0.000005
     16          1           0        6.569487   -2.517654    0.000014
     17          6           0        4.415952   -2.690946    0.000019
     18          1           0        4.414200   -3.776432    0.000034
     19          6           0        3.159684   -2.021145    0.000014
     20          1           0        2.250843   -2.617916    0.000025
     21          6           0        3.053434   -0.634223   -0.000010
     22         16           0        6.038154    1.763993   -0.000062
     23          7           0        4.421890    1.441622   -0.000057
     24          7           0        6.622069    0.232731   -0.000044
     25          6           0       -5.563127    0.588845    0.000035
     26          6           0       -4.289578   -0.109199    0.000028
     27          6           0       -3.053432    0.634223    0.000010
     28          6           0       -3.159683    2.021144   -0.000002
     29          1           0       -2.250843    2.617916   -0.000020
     30          6           0       -4.415951    2.690945    0.000005
     31          1           0       -4.414200    3.776431   -0.000004
     32          6           0       -5.610936    2.011041    0.000024
     33          1           0       -6.569485    2.517657    0.000026
     34         16           0       -6.038155   -1.763995    0.000060
     35          7           0       -6.622071   -0.232730    0.000053
     36          7           0       -4.421890   -1.441623    0.000040
 ---------------------------------------------------------------------
 Rotational constants (GHZ):      0.4473175      0.0694140      0.0600895
 Standard basis: 6-31+G(d,p) (6D, 7F)
 There are   580 symmetry adapted basis functions of A   symmetry.
 Integral buffers will be    262144 words long.
 Raffenetti 2 integral format.
 Two-electron integral symmetry is turned on.
   580 basis functions,  1000 primitive gaussians,   580 cartesian basis functions
   104 alpha electrons      103 beta electrons
       nuclear repulsion energy      2629.1724324737 Hartrees.
 NAtoms=   36 NActive=   36 NUniq=   36 SFac= 1.00D+00 NAtFMM=   50 NAOKFM=F Big=F
 One-electron integrals computed using PRISM.
 NBasis=   580 RedAO= T  NBF=   580
 NBsUse=   570 1.00D-06 NBFU=   570
 Harris functional with IExCor=  402 diagonalized for initial guess.
 ExpMin= 4.05D-02 ExpMax= 2.19D+04 ExpMxC= 3.30D+03 IAcc=2 IRadAn=         0 AccDes= 0.00D+00
 HarFok:  IExCor=  402 AccDes= 0.00D+00 IRadAn=         0 IDoV= 1
 ScaDFX=  1.000000  1.000000  1.000000  1.000000
 FoFCou: FMM=F IPFlag=           0 FMFlag=      100000 FMFlg1=           0
         NFxFlg=           0 DoJE=T BraDBF=F KetDBF=T FulRan=T
         Omega=  0.000000  0.000000  1.000000  0.000000  0.000000 ICntrl=     500 IOpCl=  0
         NMat0=    1 NMatS0=    1 NMatT0=    0 NMatD0=    1 NMtDS0=    0 NMtDT0=    0
         I1Cent=           4 NGrid=           0.
 Petite list used in FoFCou.
 Initial guess orbital symmetries:
 Alpha Orbitals:
       Occupied  (A) (A) (A) (A) (A) (A) (A) (A) (A) (A) (A) (A)
                 (A) (A) (A) (A) (A) (A) (A) (A) (A) (A) (A) (A)
                 (A) (A) (A) (A) (A) (A) (A) (A) (A) (A) (A) (A)
                 (A) (A) (A) (A) (A) (A) (A) (A) (A) (A) (A) (A)
                 (A) (A) (A) (A) (A) (A) (A) (A) (A) (A) (A) (A)
                 (A) (A) (A) (A) (A) (A) (A) (A) (A) (A) (A) (A)
                 (A) (A) (A) (A) (A) (A) (A) (A) (A) (A) (A) (A)
                 (A) (A) (A) (A) (A) (A) (A) (A) (A) (A) (A) (A)
                 (A) (A) (A) (A) (A) (A) (A) (A)
       Virtual   (A) (A) (A) (A) (A) (A) (A) (A) (A) (A) (A) (A)
                 (A) (A) (A) (A) (A) (A) (A) (A) (A) (A) (A) (A)
                 (A) (A) (A) (A) (A) (A) (A) (A) (A) (A) (A) (A)
                 (A) (A) (A) (A) (A) (A) (A) (A) (A) (A) (A) (A)
                 (A) (A) (A) (A) (A) (A) (A) (A) (A) (A) (A) (A)
                 (A) (A) (A) (A) (A) (A) (A) (A) (A) (A) (A) (A)
                 (A) (A) (A) (A) (A) (A) (A) (A) (A) (A) (A) (A)
                 (A) (A) (A) (A) (A) (A) (A) (A) (A) (A) (A) (A)
                 (A) (A) (A) (A) (A) (A) (A) (A) (A) (A) (A) (A)
                 (A) (A) (A) (A) (A) (A) (A) (A) (A) (A) (A) (A)
                 (A) (A) (A) (A) (A) (A) (A) (A) (A) (A) (A) (A)
                 (A) (A) (A) (A) (A) (A) (A) (A) (A) (A) (A) (A)
                 (A) (A) (A) (A) (A) (A) (A) (A) (A) (A) (A) (A)
                 (A) (A) (A) (A) (A) (A) (A) (A) (A) (A) (A) (A)
                 (A) (A) (A) (A) (A) (A) (A) (A) (A) (A) (A) (A)
                 (A) (A) (A) (A) (A) (A) (A) (A) (A) (A) (A) (A)
                 (A) (A) (A) (A) (A) (A) (A) (A) (A) (A) (A) (A)
                 (A) (A) (A) (A) (A) (A) (A) (A) (A) (A) (A) (A)
                 (A) (A) (A) (A) (A) (A) (A) (A) (A) (A) (A) (A)
                 (A) (A) (A) (A) (A) (A) (A) (A) (A) (A) (A) (A)
                 (A) (A) (A) (A) (A) (A) (A) (A) (A) (A) (A) (A)
                 (A) (A) (A) (A) (A) (A) (A) (A) (A) (A) (A) (A)
                 (A) (A) (A) (A) (A) (A) (A) (A) (A) (A) (A) (A)
                 (A) (A) (A) (A) (A) (A) (A) (A) (A) (A) (A) (A)
                 (A) (A) (A) (A) (A) (A) (A) (A) (A) (A) (A) (A)
                 (A) (A) (A) (A) (A) (A) (A) (A) (A) (A) (A) (A)
                 (A) (A) (A) (A) (A) (A) (A) (A) (A) (A) (A) (A)
                 (A) (A) (A) (A) (A) (A) (A) (A) (A) (A) (A) (A)
                 (A) (A) (A) (A) (A) (A) (A) (A) (A) (A) (A) (A)
                 (A) (A) (A) (A) (A) (A) (A) (A) (A) (A) (A) (A)
                 (A) (A) (A) (A) (A) (A) (A) (A) (A) (A) (A) (A)
                 (A) (A) (A) (A) (A) (A) (A) (A) (A) (A) (A) (A)
                 (A) (A) (A) (A) (A) (A) (A) (A) (A) (A) (A) (A)
                 (A) (A) (A) (A) (A) (A) (A) (A) (A) (A) (A) (A)
                 (A) (A) (A) (A) (A) (A) (A) (A) (A) (A) (A) (A)
                 (A) (A) (A) (A) (A) (A) (A) (A) (A) (A) (A) (A)
                 (A) (A) (A) (A) (A) (A) (A) (A) (A) (A) (A) (A)
                 (A) (A) (A) (A) (A) (A) (A) (A) (A) (A) (A) (A)
                 (A) (A) (A) (A) (A) (A) (A) (A) (A) (A)
 Beta  Orbitals:
       Occupied  (A) (A) (A) (A) (A) (A) (A) (A) (A) (A) (A) (A)
                 (A) (A) (A) (A) (A) (A) (A) (A) (A) (A) (A) (A)
                 (A) (A) (A) (A) (A) (A) (A) (A) (A) (A) (A) (A)
                 (A) (A) (A) (A) (A) (A) (A) (A) (A) (A) (A) (A)
                 (A) (A) (A) (A) (A) (A) (A) (A) (A) (A) (A) (A)
                 (A) (A) (A) (A) (A) (A) (A) (A) (A) (A) (A) (A)
                 (A) (A) (A) (A) (A) (A) (A) (A) (A) (A) (A) (A)
                 (A) (A) (A) (A) (A) (A) (A) (A) (A) (A) (A) (A)
                 (A) (A) (A) (A) (A) (A) (A)
       Virtual   (A) (A) (A) (A) (A) (A) (A) (A) (A) (A) (A) (A)
                 (A) (A) (A) (A) (A) (A) (A) (A) (A) (A) (A) (A)
                 (A) (A) (A) (A) (A) (A) (A) (A) (A) (A) (A) (A)
                 (A) (A) (A) (A) (A) (A) (A) (A) (A) (A) (A) (A)
                 (A) (A) (A) (A) (A) (A) (A) (A) (A) (A) (A) (A)
                 (A) (A) (A) (A) (A) (A) (A) (A) (A) (A) (A) (A)
                 (A) (A) (A) (A) (A) (A) (A) (A) (A) (A) (A) (A)
                 (A) (A) (A) (A) (A) (A) (A) (A) (A) (A) (A) (A)
                 (A) (A) (A) (A) (A) (A) (A) (A) (A) (A) (A) (A)
                 (A) (A) (A) (A) (A) (A) (A) (A) (A) (A) (A) (A)
                 (A) (A) (A) (A) (A) (A) (A) (A) (A) (A) (A) (A)
                 (A) (A) (A) (A) (A) (A) (A) (A) (A) (A) (A) (A)
                 (A) (A) (A) (A) (A) (A) (A) (A) (A) (A) (A) (A)
                 (A) (A) (A) (A) (A) (A) (A) (A) (A) (A) (A) (A)
                 (A) (A) (A) (A) (A) (A) (A) (A) (A) (A) (A) (A)
                 (A) (A) (A) (A) (A) (A) (A) (A) (A) (A) (A) (A)
                 (A) (A) (A) (A) (A) (A) (A) (A) (A) (A) (A) (A)
                 (A) (A) (A) (A) (A) (A) (A) (A) (A) (A) (A) (A)
                 (A) (A) (A) (A) (A) (A) (A) (A) (A) (A) (A) (A)
                 (A) (A) (A) (A) (A) (A) (A) (A) (A) (A) (A) (A)
                 (A) (A) (A) (A) (A) (A) (A) (A) (A) (A) (A) (A)
                 (A) (A) (A) (A) (A) (A) (A) (A) (A) (A) (A) (A)
                 (A) (A) (A) (A) (A) (A) (A) (A) (A) (A) (A) (A)
                 (A) (A) (A) (A) (A) (A) (A) (A) (A) (A) (A) (A)
                 (A) (A) (A) (A) (A) (A) (A) (A) (A) (A) (A) (A)
                 (A) (A) (A) (A) (A) (A) (A) (A) (A) (A) (A) (A)
                 (A) (A) (A) (A) (A) (A) (A) (A) (A) (A) (A) (A)
                 (A) (A) (A) (A) (A) (A) (A) (A) (A) (A) (A) (A)
                 (A) (A) (A) (A) (A) (A) (A) (A) (A) (A) (A) (A)
                 (A) (A) (A) (A) (A) (A) (A) (A) (A) (A) (A) (A)
                 (A) (A) (A) (A) (A) (A) (A) (A) (A) (A) (A) (A)
                 (A) (A) (A) (A) (A) (A) (A) (A) (A) (A) (A) (A)
                 (A) (A) (A) (A) (A) (A) (A) (A) (A) (A) (A) (A)
                 (A) (A) (A) (A) (A) (A) (A) (A) (A) (A) (A) (A)
                 (A) (A) (A) (A) (A) (A) (A) (A) (A) (A) (A) (A)
                 (A) (A) (A) (A) (A) (A) (A) (A) (A) (A) (A) (A)
                 (A) (A) (A) (A) (A) (A) (A) (A) (A) (A) (A) (A)
                 (A) (A) (A) (A) (A) (A) (A) (A) (A) (A) (A) (A)
                 (A) (A) (A) (A) (A) (A) (A) (A) (A) (A) (A)
 The electronic state of the initial guess is 2-A.
 Initial guess <Sx>= 0.0000 <Sy>= 0.0000 <Sz>= 0.5000 <S**2>= 0.7500 S= 0.5000
 Requested convergence on RMS density matrix=1.00D-08 within 128 cycles.
 Requested convergence on MAX density matrix=1.00D-06.
 Requested convergence on             energy=1.00D-06.
 No special actions if energy rises.
 EnCoef did     2 forward-backward iterations
 EnCoef did     2 forward-backward iterations
 Restarting incremental Fock formation.
 SCF Done:  E(UB3LYP) =  -1966.21239478     A.U. after   25 cycles
             Convg  =    0.7636D-08             -V/T =  2.0068
 <Sx>= 0.0000 <Sy>= 0.0000 <Sz>= 0.5000 <S**2>= 0.7927 S= 0.5211
 <L.S>= 0.000000000000E+00
 Annihilation of the first spin contaminant:
 S**2 before annihilation     0.7927,   after     0.7509

 **********************************************************************

            Population analysis using the SCF density.

 **********************************************************************

 Orbital symmetries:
 Alpha Orbitals:
       Occupied  (A) (A) (A) (A) (A) (A) (A) (A) (A) (A) (A) (A)
                 (A) (A) (A) (A) (A) (A) (A) (A) (A) (A) (A) (A)
                 (A) (A) (A) (A) (A) (A) (A) (A) (A) (A) (A) (A)
                 (A) (A) (A) (A) (A) (A) (A) (A) (A) (A) (A) (A)
                 (A) (A) (A) (A) (A) (A) (A) (A) (A) (A) (A) (A)
                 (A) (A) (A) (A) (A) (A) (A) (A) (A) (A) (A) (A)
                 (A) (A) (A) (A) (A) (A) (A) (A) (A) (A) (A) (A)
                 (A) (A) (A) (A) (A) (A) (A) (A) (A) (A) (A) (A)
                 (A) (A) (A) (A) (A) (A) (A) (A)
       Virtual   (A) (A) (A) (A) (A) (A) (A) (A) (A) (A) (A) (A)
                 (A) (A) (A) (A) (A) (A) (A) (A) (A) (A) (A) (A)
                 (A) (A) (A) (A) (A) (A) (A) (A) (A) (A) (A) (A)
                 (A) (A) (A) (A) (A) (A) (A) (A) (A) (A) (A) (A)
                 (A) (A) (A) (A) (A) (A) (A) (A) (A) (A) (A) (A)
                 (A) (A) (A) (A) (A) (A) (A) (A) (A) (A) (A) (A)
                 (A) (A) (A) (A) (A) (A) (A) (A) (A) (A) (A) (A)
                 (A) (A) (A) (A) (A) (A) (A) (A) (A) (A) (A) (A)
                 (A) (A) (A) (A) (A) (A) (A) (A) (A) (A) (A) (A)
                 (A) (A) (A) (A) (A) (A) (A) (A) (A) (A) (A) (A)
                 (A) (A) (A) (A) (A) (A) (A) (A) (A) (A) (A) (A)
                 (A) (A) (A) (A) (A) (A) (A) (A) (A) (A) (A) (A)
                 (A) (A) (A) (A) (A) (A) (A) (A) (A) (A) (A) (A)
                 (A) (A) (A) (A) (A) (A) (A) (A) (A) (A) (A) (A)
                 (A) (A) (A) (A) (A) (A) (A) (A) (A) (A) (A) (A)
                 (A) (A) (A) (A) (A) (A) (A) (A) (A) (A) (A) (A)
                 (A) (A) (A) (A) (A) (A) (A) (A) (A) (A) (A) (A)
                 (A) (A) (A) (A) (A) (A) (A) (A) (A) (A) (A) (A)
                 (A) (A) (A) (A) (A) (A) (A) (A) (A) (A) (A) (A)
                 (A) (A) (A) (A) (A) (A) (A) (A) (A) (A) (A) (A)
                 (A) (A) (A) (A) (A) (A) (A) (A) (A) (A) (A) (A)
                 (A) (A) (A) (A) (A) (A) (A) (A) (A) (A) (A) (A)
                 (A) (A) (A) (A) (A) (A) (A) (A) (A) (A) (A) (A)
                 (A) (A) (A) (A) (A) (A) (A) (A) (A) (A) (A) (A)
                 (A) (A) (A) (A) (A) (A) (A) (A) (A) (A) (A) (A)
                 (A) (A) (A) (A) (A) (A) (A) (A) (A) (A) (A) (A)
                 (A) (A) (A) (A) (A) (A) (A) (A) (A) (A) (A) (A)
                 (A) (A) (A) (A) (A) (A) (A) (A) (A) (A) (A) (A)
                 (A) (A) (A) (A) (A) (A) (A) (A) (A) (A) (A) (A)
                 (A) (A) (A) (A) (A) (A) (A) (A) (A) (A) (A) (A)
                 (A) (A) (A) (A) (A) (A) (A) (A) (A) (A) (A) (A)
                 (A) (A) (A) (A) (A) (A) (A) (A) (A) (A) (A) (A)
                 (A) (A) (A) (A) (A) (A) (A) (A) (A) (A) (A) (A)
                 (A) (A) (A) (A) (A) (A) (A) (A) (A) (A) (A) (A)
                 (A) (A) (A) (A) (A) (A) (A) (A) (A) (A) (A) (A)
                 (A) (A) (A) (A) (A) (A) (A) (A) (A) (A) (A) (A)
                 (A) (A) (A) (A) (A) (A) (A) (A) (A) (A) (A) (A)
                 (A) (A) (A) (A) (A) (A) (A) (A) (A) (A) (A) (A)
                 (A) (A) (A) (A) (A) (A) (A) (A) (A) (A)
 Beta  Orbitals:
       Occupied  (A) (A) (A) (A) (A) (A) (A) (A) (A) (A) (A) (A)
                 (A) (A) (A) (A) (A) (A) (A) (A) (A) (A) (A) (A)
                 (A) (A) (A) (A) (A) (A) (A) (A) (A) (A) (A) (A)
                 (A) (A) (A) (A) (A) (A) (A) (A) (A) (A) (A) (A)
                 (A) (A) (A) (A) (A) (A) (A) (A) (A) (A) (A) (A)
                 (A) (A) (A) (A) (A) (A) (A) (A) (A) (A) (A) (A)
                 (A) (A) (A) (A) (A) (A) (A) (A) (A) (A) (A) (A)
                 (A) (A) (A) (A) (A) (A) (A) (A) (A) (A) (A) (A)
                 (A) (A) (A) (A) (A) (A) (A)
       Virtual   (A) (A) (A) (A) (A) (A) (A) (A) (A) (A) (A) (A)
                 (A) (A) (A) (A) (A) (A) (A) (A) (A) (A) (A) (A)
                 (A) (A) (A) (A) (A) (A) (A) (A) (A) (A) (A) (A)
                 (A) (A) (A) (A) (A) (A) (A) (A) (A) (A) (A) (A)
                 (A) (A) (A) (A) (A) (A) (A) (A) (A) (A) (A) (A)
                 (A) (A) (A) (A) (A) (A) (A) (A) (A) (A) (A) (A)
                 (A) (A) (A) (A) (A) (A) (A) (A) (A) (A) (A) (A)
                 (A) (A) (A) (A) (A) (A) (A) (A) (A) (A) (A) (A)
                 (A) (A) (A) (A) (A) (A) (A) (A) (A) (A) (A) (A)
                 (A) (A) (A) (A) (A) (A) (A) (A) (A) (A) (A) (A)
                 (A) (A) (A) (A) (A) (A) (A) (A) (A) (A) (A) (A)
                 (A) (A) (A) (A) (A) (A) (A) (A) (A) (A) (A) (A)
                 (A) (A) (A) (A) (A) (A) (A) (A) (A) (A) (A) (A)
                 (A) (A) (A) (A) (A) (A) (A) (A) (A) (A) (A) (A)
                 (A) (A) (A) (A) (A) (A) (A) (A) (A) (A) (A) (A)
                 (A) (A) (A) (A) (A) (A) (A) (A) (A) (A) (A) (A)
                 (A) (A) (A) (A) (A) (A) (A) (A) (A) (A) (A) (A)
                 (A) (A) (A) (A) (A) (A) (A) (A) (A) (A) (A) (A)
                 (A) (A) (A) (A) (A) (A) (A) (A) (A) (A) (A) (A)
                 (A) (A) (A) (A) (A) (A) (A) (A) (A) (A) (A) (A)
                 (A) (A) (A) (A) (A) (A) (A) (A) (A) (A) (A) (A)
                 (A) (A) (A) (A) (A) (A) (A) (A) (A) (A) (A) (A)
                 (A) (A) (A) (A) (A) (A) (A) (A) (A) (A) (A) (A)
                 (A) (A) (A) (A) (A) (A) (A) (A) (A) (A) (A) (A)
                 (A) (A) (A) (A) (A) (A) (A) (A) (A) (A) (A) (A)
                 (A) (A) (A) (A) (A) (A) (A) (A) (A) (A) (A) (A)
                 (A) (A) (A) (A) (A) (A) (A) (A) (A) (A) (A) (A)
                 (A) (A) (A) (A) (A) (A) (A) (A) (A) (A) (A) (A)
                 (A) (A) (A) (A) (A) (A) (A) (A) (A) (A) (A) (A)
                 (A) (A) (A) (A) (A) (A) (A) (A) (A) (A) (A) (A)
                 (A) (A) (A) (A) (A) (A) (A) (A) (A) (A) (A) (A)
                 (A) (A) (A) (A) (A) (A) (A) (A) (A) (A) (A) (A)
                 (A) (A) (A) (A) (A) (A) (A) (A) (A) (A) (A) (A)
                 (A) (A) (A) (A) (A) (A) (A) (A) (A) (A) (A) (A)
                 (A) (A) (A) (A) (A) (A) (A) (A) (A) (A) (A) (A)
                 (A) (A) (A) (A) (A) (A) (A) (A) (A) (A) (A) (A)
                 (A) (A) (A) (A) (A) (A) (A) (A) (A) (A) (A) (A)
                 (A) (A) (A) (A) (A) (A) (A) (A) (A) (A) (A) (A)
                 (A) (A) (A) (A) (A) (A) (A) (A) (A) (A) (A)
 The electronic state is 2-A.
 Alpha  occ. eigenvalues --  -88.87951 -88.87951 -19.02509 -19.02509 -14.28129
 Alpha  occ. eigenvalues --  -14.28129 -14.27687 -14.27687 -14.27227 -14.27227
 Alpha  occ. eigenvalues --  -10.19190 -10.19189 -10.15772 -10.15772 -10.15200
 Alpha  occ. eigenvalues --  -10.15200 -10.15023 -10.15023 -10.12233 -10.12233
 Alpha  occ. eigenvalues --  -10.11172 -10.11172 -10.10840 -10.10840 -10.09936
 Alpha  occ. eigenvalues --  -10.09936 -10.08519 -10.08473  -7.93364  -7.93364
 Alpha  occ. eigenvalues --   -5.89937  -5.89937  -5.89364  -5.89363  -5.89095
 Alpha  occ. eigenvalues --   -5.89094  -0.94093  -0.93622  -0.92854  -0.92851
 Alpha  occ. eigenvalues --   -0.86801  -0.85444  -0.80207  -0.80144  -0.76566
 Alpha  occ. eigenvalues --   -0.76554  -0.70027  -0.68589  -0.67835  -0.66918
 Alpha  occ. eigenvalues --   -0.66800  -0.61542  -0.58759  -0.56768  -0.55523
 Alpha  occ. eigenvalues --   -0.55060  -0.52426  -0.51968  -0.51071  -0.49777
 Alpha  occ. eigenvalues --   -0.46503  -0.43729  -0.42576  -0.42029  -0.41550
 Alpha  occ. eigenvalues --   -0.40497  -0.39256  -0.38524  -0.38283  -0.37587
 Alpha  occ. eigenvalues --   -0.36716  -0.36506  -0.36367  -0.35321  -0.34454
 Alpha  occ. eigenvalues --   -0.33038  -0.32811  -0.31868  -0.30073  -0.29901
 Alpha  occ. eigenvalues --   -0.29327  -0.29315  -0.28535  -0.28224  -0.28022
 Alpha  occ. eigenvalues --   -0.27917  -0.27088  -0.25430  -0.25188  -0.23492
 Alpha  occ. eigenvalues --   -0.23432  -0.22818  -0.22792  -0.21580  -0.21510
 Alpha  occ. eigenvalues --   -0.17794  -0.17740  -0.17177  -0.16175  -0.16041
 Alpha  occ. eigenvalues --   -0.15471  -0.15298  -0.09397  -0.04481
 Alpha virt. eigenvalues --   -0.00996   0.02054   0.07113   0.07974   0.07974
 Alpha virt. eigenvalues --    0.08691   0.08869   0.09439   0.09469   0.09481
 Alpha virt. eigenvalues --    0.09506   0.10504   0.10541   0.10602   0.11265
 Alpha virt. eigenvalues --    0.12070   0.12151   0.12224   0.12964   0.13055
 Alpha virt. eigenvalues --    0.13558   0.14209   0.14400   0.15072   0.15371
 Alpha virt. eigenvalues --    0.15793   0.16081   0.16414   0.16802   0.16812
 Alpha virt. eigenvalues --    0.17054   0.17983   0.18532   0.18581   0.18983
 Alpha virt. eigenvalues --    0.19336   0.19371   0.19535   0.19789   0.19992
 Alpha virt. eigenvalues --    0.20153   0.21058   0.21131   0.21361   0.21586
 Alpha virt. eigenvalues --    0.22047   0.22226   0.22888   0.23793   0.24135
 Alpha virt. eigenvalues --    0.24223   0.24652   0.25090   0.25607   0.25680
 Alpha virt. eigenvalues --    0.25759   0.25976   0.26510   0.26553   0.26649
 Alpha virt. eigenvalues --    0.27139   0.27610   0.27710   0.28148   0.28166
 Alpha virt. eigenvalues --    0.28535   0.29008   0.29170   0.29475   0.29683
 Alpha virt. eigenvalues --    0.30115   0.30158   0.30161   0.30250   0.30604
 Alpha virt. eigenvalues --    0.31110   0.31139   0.31369   0.31748   0.31756
 Alpha virt. eigenvalues --    0.32429   0.32631   0.32909   0.33086   0.33544
 Alpha virt. eigenvalues --    0.33574   0.34118   0.34236   0.34355   0.34647
 Alpha virt. eigenvalues --    0.34804   0.35209   0.35397   0.35632   0.35753
 Alpha virt. eigenvalues --    0.35778   0.36218   0.36305   0.36560   0.37215
 Alpha virt. eigenvalues --    0.37673   0.37934   0.38353   0.38440   0.38511
 Alpha virt. eigenvalues --    0.38865   0.38889   0.39628   0.40276   0.40316
 Alpha virt. eigenvalues --    0.40461   0.40985   0.41233   0.41692   0.42329
 Alpha virt. eigenvalues --    0.42384   0.42653   0.42672   0.42989   0.43604
 Alpha virt. eigenvalues --    0.43965   0.44664   0.45691   0.46049   0.46375
 Alpha virt. eigenvalues --    0.47240   0.47345   0.48133   0.48403   0.49253
 Alpha virt. eigenvalues --    0.50276   0.50991   0.52160   0.52171   0.52511
 Alpha virt. eigenvalues --    0.53112   0.54477   0.55136   0.55550   0.56223
 Alpha virt. eigenvalues --    0.57525   0.57557   0.57880   0.58237   0.58309
 Alpha virt. eigenvalues --    0.58891   0.59650   0.60032   0.61116   0.61977
 Alpha virt. eigenvalues --    0.62025   0.66130   0.66494   0.69391   0.70537
 Alpha virt. eigenvalues --    0.72607   0.73520   0.74157   0.74415   0.74634
 Alpha virt. eigenvalues --    0.75102   0.75649   0.75726   0.77065   0.77363
 Alpha virt. eigenvalues --    0.77862   0.77937   0.78109   0.79744   0.80241
 Alpha virt. eigenvalues --    0.81078   0.81348   0.81708   0.81887   0.81959
 Alpha virt. eigenvalues --    0.82479   0.83395   0.83468   0.83627   0.84041
 Alpha virt. eigenvalues --    0.85028   0.85179   0.85976   0.86267   0.86658
 Alpha virt. eigenvalues --    0.87845   0.88038   0.88669   0.89555   0.90639
 Alpha virt. eigenvalues --    0.91258   0.91994   0.93009   0.93190   0.93909
 Alpha virt. eigenvalues --    0.95172   0.96654   0.96964   0.97397   0.97529
 Alpha virt. eigenvalues --    0.98386   0.99312   1.02999   1.03044   1.05101
 Alpha virt. eigenvalues --    1.05286   1.06386   1.07970   1.08269   1.08321
 Alpha virt. eigenvalues --    1.09161   1.09399   1.09619   1.09750   1.10916
 Alpha virt. eigenvalues --    1.11660   1.12641   1.13227   1.14332   1.14355
 Alpha virt. eigenvalues --    1.14580   1.14792   1.16191   1.16876   1.18143
 Alpha virt. eigenvalues --    1.18432   1.19627   1.19966   1.21620   1.21633
 Alpha virt. eigenvalues --    1.22504   1.23049   1.25027   1.25182   1.26319
 Alpha virt. eigenvalues --    1.26425   1.27482   1.27986   1.29439   1.30309
 Alpha virt. eigenvalues --    1.30987   1.31384   1.31487   1.31965   1.32485
 Alpha virt. eigenvalues --    1.33107   1.33190   1.35377   1.35756   1.36426
 Alpha virt. eigenvalues --    1.37113   1.38060   1.38194   1.38884   1.39066
 Alpha virt. eigenvalues --    1.39387   1.39958   1.40092   1.40379   1.41899
 Alpha virt. eigenvalues --    1.42895   1.43028   1.43335   1.44640   1.46256
 Alpha virt. eigenvalues --    1.46358   1.46467   1.46734   1.47202   1.47312
 Alpha virt. eigenvalues --    1.47524   1.48371   1.48445   1.49617   1.49850
 Alpha virt. eigenvalues --    1.50596   1.50993   1.51428   1.51645   1.52837
 Alpha virt. eigenvalues --    1.53666   1.56113   1.59949   1.61490   1.62207
 Alpha virt. eigenvalues --    1.63429   1.63995   1.65020   1.70155   1.70350
 Alpha virt. eigenvalues --    1.72898   1.75966   1.79375   1.80146   1.81198
 Alpha virt. eigenvalues --    1.81342   1.81879   1.82447   1.82565   1.85307
 Alpha virt. eigenvalues --    1.85754   1.85986   1.86380   1.86991   1.88412
 Alpha virt. eigenvalues --    1.88859   1.90782   1.92765   1.93026   1.94640
 Alpha virt. eigenvalues --    1.94745   1.94940   1.95071   1.95115   1.96547
 Alpha virt. eigenvalues --    1.97203   2.00176   2.00405   2.01108   2.01610
 Alpha virt. eigenvalues --    2.01778   2.03748   2.04653   2.05252   2.06161
 Alpha virt. eigenvalues --    2.06310   2.06967   2.07189   2.08273   2.08454
 Alpha virt. eigenvalues --    2.09281   2.09323   2.09440   2.12625   2.12823
 Alpha virt. eigenvalues --    2.15134   2.15742   2.16218   2.17045   2.20336
 Alpha virt. eigenvalues --    2.21896   2.22283   2.24834   2.26334   2.27147
 Alpha virt. eigenvalues --    2.29106   2.30653   2.30856   2.32227   2.35673
 Alpha virt. eigenvalues --    2.36810   2.37072   2.37143   2.39420   2.40055
 Alpha virt. eigenvalues --    2.40847   2.41672   2.42757   2.42835   2.44385
 Alpha virt. eigenvalues --    2.44672   2.47837   2.48144   2.48225   2.48236
 Alpha virt. eigenvalues --    2.51245   2.51907   2.54510   2.54560   2.54802
 Alpha virt. eigenvalues --    2.55411   2.55422   2.56241   2.56919   2.57317
 Alpha virt. eigenvalues --    2.58635   2.58778   2.60648   2.61624   2.63425
 Alpha virt. eigenvalues --    2.63766   2.65548   2.66285   2.66309   2.68174
 Alpha virt. eigenvalues --    2.69801   2.71343   2.71421   2.72672   2.73154
 Alpha virt. eigenvalues --    2.74608   2.75395   2.75536   2.77298   2.79263
 Alpha virt. eigenvalues --    2.80242   2.81057   2.82224   2.83320   2.86491
 Alpha virt. eigenvalues --    2.87110   2.88038   2.89425   2.90215   2.91930
 Alpha virt. eigenvalues --    2.92339   2.95427   2.97760   2.97967   3.00498
 Alpha virt. eigenvalues --    3.04483   3.05639   3.07914   3.10595   3.12600
 Alpha virt. eigenvalues --    3.14139   3.16215   3.16226   3.19627   3.20097
 Alpha virt. eigenvalues --    3.22181   3.26810   3.32611   3.33651   3.35414
 Alpha virt. eigenvalues --    3.38590   3.39631   3.40280   3.43232   3.43297
 Alpha virt. eigenvalues --    3.52047   3.55086   3.55494   3.61581   3.71213
 Alpha virt. eigenvalues --    3.72541   3.89216   3.89521   4.05172   4.05242
 Alpha virt. eigenvalues --    4.20842   4.20878   4.32075   4.32860   4.37799
 Alpha virt. eigenvalues --    4.40412   4.40526   4.43122   4.45764   4.47969
 Alpha virt. eigenvalues --    4.48767   4.49576   4.54803   4.56181   4.58881
 Alpha virt. eigenvalues --    4.60190   4.61288   4.67388   4.69645   4.72663
 Alpha virt. eigenvalues --    4.80103   4.88852   4.97312   4.99065   5.16388
 Alpha virt. eigenvalues --    5.24431
  Beta  occ. eigenvalues --  -88.87910 -88.87910 -19.02441 -19.02441 -14.28111
  Beta  occ. eigenvalues --  -14.28111 -14.27434 -14.27434 -14.27223 -14.27223
  Beta  occ. eigenvalues --  -10.19172 -10.19171 -10.15778 -10.15778 -10.15267
  Beta  occ. eigenvalues --  -10.15267 -10.14855 -10.14854 -10.12275 -10.12275
  Beta  occ. eigenvalues --  -10.11233 -10.11233 -10.10611 -10.10611 -10.09708
  Beta  occ. eigenvalues --  -10.09708 -10.08565 -10.08520  -7.93324  -7.93324
  Beta  occ. eigenvalues --   -5.89916  -5.89916  -5.89344  -5.89344  -5.88956
  Beta  occ. eigenvalues --   -5.88956  -0.93987  -0.93510  -0.92685  -0.92681
  Beta  occ. eigenvalues --   -0.86684  -0.85315  -0.79945  -0.79884  -0.76370
  Beta  occ. eigenvalues --   -0.76359  -0.70026  -0.68331  -0.67595  -0.66756
  Beta  occ. eigenvalues --   -0.66629  -0.61286  -0.58319  -0.56713  -0.55241
  Beta  occ. eigenvalues --   -0.54845  -0.52334  -0.51883  -0.50980  -0.49639
  Beta  occ. eigenvalues --   -0.46420  -0.43634  -0.42526  -0.41884  -0.41418
  Beta  occ. eigenvalues --   -0.40384  -0.39154  -0.38399  -0.38160  -0.37454
  Beta  occ. eigenvalues --   -0.36426  -0.36389  -0.35996  -0.35006  -0.34412
  Beta  occ. eigenvalues --   -0.32943  -0.32735  -0.31535  -0.29933  -0.29749
  Beta  occ. eigenvalues --   -0.29124  -0.29116  -0.28495  -0.28151  -0.27823
  Beta  occ. eigenvalues --   -0.27397  -0.26424  -0.24795  -0.24568  -0.23376
  Beta  occ. eigenvalues --   -0.23353  -0.22278  -0.22160  -0.21386  -0.21338
  Beta  occ. eigenvalues --   -0.17158  -0.17112  -0.17093  -0.15851  -0.15414
  Beta  occ. eigenvalues --   -0.15353  -0.14899  -0.08484
  Beta virt. eigenvalues --   -0.00574   0.00605   0.03071   0.07852   0.08063
  Beta virt. eigenvalues --    0.08064   0.08701   0.08879   0.09443   0.09474
  Beta virt. eigenvalues --    0.09860   0.09872   0.10565   0.10627   0.11068
  Beta virt. eigenvalues --    0.11279   0.12108   0.12162   0.12415   0.13070
  Beta virt. eigenvalues --    0.13263   0.13573   0.14238   0.14465   0.15110
  Beta virt. eigenvalues --    0.15371   0.15831   0.16156   0.16416   0.16846
  Beta virt. eigenvalues --    0.16856   0.17071   0.18003   0.18572   0.18823
  Beta virt. eigenvalues --    0.19255   0.19379   0.19416   0.19554   0.19835
  Beta virt. eigenvalues --    0.19952   0.20195   0.21080   0.21138   0.21560
  Beta virt. eigenvalues --    0.21611   0.22251   0.22418   0.22928   0.23860
  Beta virt. eigenvalues --    0.24227   0.24232   0.24718   0.25158   0.25610
  Beta virt. eigenvalues --    0.25679   0.25905   0.25969   0.26537   0.26560
  Beta virt. eigenvalues --    0.26703   0.27418   0.27616   0.27728   0.28383
  Beta virt. eigenvalues --    0.28561   0.28578   0.29032   0.29212   0.29641
  Beta virt. eigenvalues --    0.29727   0.30204   0.30213   0.30220   0.30283
  Beta virt. eigenvalues --    0.30651   0.31129   0.31234   0.31370   0.31763
  Beta virt. eigenvalues --    0.31836   0.32512   0.32687   0.33056   0.33121
  Beta virt. eigenvalues --    0.33576   0.33593   0.34176   0.34260   0.34366
  Beta virt. eigenvalues --    0.34733   0.34887   0.35237   0.35450   0.35688
  Beta virt. eigenvalues --    0.35781   0.35797   0.36249   0.36348   0.36621
  Beta virt. eigenvalues --    0.37248   0.37690   0.37969   0.38390   0.38464
  Beta virt. eigenvalues --    0.38547   0.38925   0.38937   0.39690   0.40325
  Beta virt. eigenvalues --    0.40392   0.40513   0.41033   0.41289   0.41739
  Beta virt. eigenvalues --    0.42401   0.42464   0.42703   0.42728   0.43052
  Beta virt. eigenvalues --    0.43640   0.44081   0.44727   0.45744   0.46044
  Beta virt. eigenvalues --    0.46428   0.47322   0.47382   0.48222   0.48525
  Beta virt. eigenvalues --    0.49366   0.50322   0.51054   0.52181   0.52207
  Beta virt. eigenvalues --    0.52555   0.53188   0.54509   0.55162   0.55670
  Beta virt. eigenvalues --    0.56259   0.57618   0.57626   0.58118   0.58252
  Beta virt. eigenvalues --    0.58340   0.59129   0.59701   0.60104   0.61170
  Beta virt. eigenvalues --    0.62026   0.62100   0.66196   0.66542   0.69503
  Beta virt. eigenvalues --    0.70590   0.72685   0.73665   0.74230   0.74533
  Beta virt. eigenvalues --    0.74838   0.75148   0.75766   0.75966   0.77598
  Beta virt. eigenvalues --    0.77880   0.77947   0.78253   0.78432   0.79830
  Beta virt. eigenvalues --    0.80332   0.81618   0.81626   0.81768   0.81939
  Beta virt. eigenvalues --    0.82467   0.82719   0.83483   0.83540   0.83890
  Beta virt. eigenvalues --    0.84172   0.85095   0.85534   0.86067   0.86660
  Beta virt. eigenvalues --    0.86963   0.87956   0.88122   0.88746   0.89678
  Beta virt. eigenvalues --    0.90739   0.91592   0.92036   0.93242   0.93248
  Beta virt. eigenvalues --    0.93996   0.95209   0.96731   0.97026   0.97477
  Beta virt. eigenvalues --    0.97650   0.98457   0.99530   1.03064   1.03110
  Beta virt. eigenvalues --    1.05167   1.05368   1.06412   1.08044   1.08329
  Beta virt. eigenvalues --    1.08409   1.09232   1.09812   1.09831   1.10089
  Beta virt. eigenvalues --    1.11008   1.11778   1.12772   1.13345   1.14432
  Beta virt. eigenvalues --    1.14680   1.14862   1.14889   1.16280   1.16952
  Beta virt. eigenvalues --    1.18262   1.18574   1.19783   1.20032   1.21697
  Beta virt. eigenvalues --    1.21731   1.22593   1.23206   1.25156   1.25224
  Beta virt. eigenvalues --    1.26432   1.26449   1.27581   1.28051   1.29470
  Beta virt. eigenvalues --    1.30376   1.31187   1.31441   1.31730   1.32041
  Beta virt. eigenvalues --    1.32601   1.33301   1.33406   1.35614   1.35838
  Beta virt. eigenvalues --    1.36485   1.37168   1.38249   1.38432   1.39008
  Beta virt. eigenvalues --    1.39167   1.39480   1.40081   1.40305   1.40498
  Beta virt. eigenvalues --    1.42020   1.43101   1.43190   1.43629   1.44712
  Beta virt. eigenvalues --    1.46371   1.46442   1.46629   1.46913   1.47377
  Beta virt. eigenvalues --    1.47387   1.47614   1.48701   1.48789   1.49819
  Beta virt. eigenvalues --    1.50198   1.50911   1.51069   1.51530   1.51755
  Beta virt. eigenvalues --    1.52929   1.53745   1.56180   1.60000   1.61542
  Beta virt. eigenvalues --    1.62293   1.63593   1.64044   1.65157   1.70215
  Beta virt. eigenvalues --    1.70422   1.72998   1.76153   1.79444   1.80279
  Beta virt. eigenvalues --    1.81408   1.81530   1.81933   1.82531   1.82733
  Beta virt. eigenvalues --    1.85587   1.86047   1.86255   1.86417   1.87152
  Beta virt. eigenvalues --    1.88524   1.88956   1.90854   1.92882   1.93198
  Beta virt. eigenvalues --    1.94954   1.95049   1.95287   1.95307   1.95472
  Beta virt. eigenvalues --    1.96685   1.97432   2.00273   2.00517   2.01388
  Beta virt. eigenvalues --    2.01704   2.01885   2.03862   2.04778   2.05336
  Beta virt. eigenvalues --    2.06355   2.06568   2.07259   2.07292   2.08388
  Beta virt. eigenvalues --    2.08650   2.09368   2.09557   2.09691   2.12723
  Beta virt. eigenvalues --    2.12938   2.15152   2.15887   2.16219   2.17139
  Beta virt. eigenvalues --    2.20421   2.22033   2.22542   2.24926   2.26500
  Beta virt. eigenvalues --    2.27282   2.29360   2.30835   2.30958   2.32502
  Beta virt. eigenvalues --    2.35951   2.37121   2.37249   2.37352   2.39502
  Beta virt. eigenvalues --    2.40344   2.40916   2.41796   2.42873   2.43033
  Beta virt. eigenvalues --    2.44602   2.44961   2.47929   2.48276   2.48334
  Beta virt. eigenvalues --    2.48338   2.51437   2.51973   2.54731   2.54888
  Beta virt. eigenvalues --    2.55022   2.55548   2.55795   2.56286   2.56973
  Beta virt. eigenvalues --    2.57357   2.58708   2.58846   2.60741   2.61673
  Beta virt. eigenvalues --    2.63771   2.64083   2.65656   2.66429   2.66579
  Beta virt. eigenvalues --    2.68286   2.69848   2.71384   2.71757   2.72849
  Beta virt. eigenvalues --    2.73461   2.74783   2.75509   2.75757   2.77388
  Beta virt. eigenvalues --    2.79392   2.80509   2.81173   2.82314   2.83579
  Beta virt. eigenvalues --    2.86696   2.87178   2.88161   2.89552   2.90406
  Beta virt. eigenvalues --    2.92099   2.92350   2.95521   2.97819   2.98006
  Beta virt. eigenvalues --    3.00630   3.04605   3.05605   3.08012   3.10648
  Beta virt. eigenvalues --    3.12666   3.14299   3.16254   3.16291   3.19718
  Beta virt. eigenvalues --    3.20172   3.22230   3.26887   3.32720   3.33750
  Beta virt. eigenvalues --    3.35463   3.38616   3.39653   3.40321   3.43280
  Beta virt. eigenvalues --    3.43329   3.52099   3.55185   3.55586   3.61620
  Beta virt. eigenvalues --    3.71250   3.72567   3.89315   3.89617   4.05339
  Beta virt. eigenvalues --    4.05407   4.21119   4.21173   4.32199   4.32966
  Beta virt. eigenvalues --    4.37851   4.40601   4.40712   4.43133   4.45831
  Beta virt. eigenvalues --    4.48024   4.49031   4.49924   4.54794   4.56279
  Beta virt. eigenvalues --    4.58931   4.60294   4.61409   4.67489   4.69783
  Beta virt. eigenvalues --    4.72815   4.80287   4.88930   4.97436   4.99192
  Beta virt. eigenvalues --    5.16464   5.24501
          Condensed to atoms (all electrons):
              1          2          3          4          5          6
     1  N    7.513139   0.405809  -0.098677  -0.241784  -0.408457   0.084931
     2  C    0.405809   9.128565  -0.490555  -0.959791  -2.987382   0.013879
     3  C   -0.098677  -0.490555   9.686403   0.689103  -0.203129   0.440791
     4  C   -0.241784  -0.959791   0.689103  11.481065   0.649650  -0.203130
     5  C   -0.408457  -2.987382  -0.203129   0.649650  11.481072   0.689094
     6  C    0.084931   0.013879   0.440791  -0.203130   0.689094   9.686403
     7  C   -0.018408   0.650585   0.013877  -2.987355  -0.959776  -0.490552
     8  N    0.004800  -0.018409   0.084929  -0.408448  -0.241783  -0.098675
     9  O   -0.097671   0.264463  -0.028002  -0.031508   0.008093   0.051719
    10  O   -0.005189   0.008467   0.051720   0.008094  -0.031509  -0.028003
    11  H    0.000145   0.009160   0.004728  -0.022135   0.051034   0.007618
    12  H    0.287181  -0.015208   0.007618   0.051033  -0.022134   0.004728
    13  C    0.025712  -0.098817  -0.139235  -0.253904   0.121672  -0.913240
    14  C   -0.000895  -0.204406  -0.129233   0.041550  -0.569145  -1.112476
    15  C    0.003247  -0.027710  -0.010537  -0.079498   0.012511  -0.295486
    16  H    0.000000  -0.000039  -0.000007   0.000063   0.000067   0.002908
    17  C    0.032799   0.308018   0.105601   0.056385  -0.269064  -0.700342
    18  H    0.000002  -0.001904  -0.000150  -0.000564  -0.002851  -0.008983
    19  C    0.087093  -0.410901  -0.346833  -0.268560  -1.420338  -2.271475
    20  H    0.002812   0.022163   0.011272  -0.010940   0.025542  -0.039621
    21  C   -0.087434  -0.313557  -0.384948   0.176800   0.900914   1.427477
    22  S    0.000165   0.003414  -0.000648  -0.015686   0.001657  -0.012267
    23  N   -0.001483   0.023483   0.027236  -0.090591   0.028577  -0.097827
    24  N    0.000078   0.006823   0.002216  -0.008421   0.038330   0.059275
    25  C   -0.033429  -0.075829  -1.112492  -0.569155   0.041548  -0.129235
    26  C    0.018818   0.179062  -0.913266   0.121661  -0.253904  -0.139240
    27  C   -0.139831  -0.008786   1.427490   0.900922   0.176801  -0.384950
    28  C    0.030153  -0.105236  -2.271435  -1.420341  -0.268547  -0.346828
    29  H    0.001394   0.000286  -0.039622   0.025542  -0.010940   0.011272
    30  C    0.064867   0.027181  -0.700358  -0.269067   0.056386   0.105602
    31  H    0.000034  -0.000061  -0.008983  -0.002851  -0.000564  -0.000150
    32  C    0.046398  -0.021820  -0.295483   0.012514  -0.079499  -0.010537
    33  H    0.000043   0.000050   0.002908   0.000067   0.000063  -0.000007
    34  S   -0.029773  -0.013496  -0.012264   0.001657  -0.015686  -0.000648
    35  N   -0.003681   0.010439   0.059274   0.038329  -0.008420   0.002216
    36  N    0.042510   0.065997  -0.097828   0.028577  -0.090591   0.027236
              7          8          9         10         11         12
     1  N   -0.018408   0.004800  -0.097671  -0.005189   0.000145   0.287181
     2  C    0.650585  -0.018409   0.264463   0.008467   0.009160  -0.015208
     3  C    0.013877   0.084929  -0.028002   0.051720   0.004728   0.007618
     4  C   -2.987355  -0.408448  -0.031508   0.008094  -0.022135   0.051033
     5  C   -0.959776  -0.241783   0.008093  -0.031509   0.051034  -0.022134
     6  C   -0.490552  -0.098675   0.051719  -0.028003   0.007618   0.004728
     7  C    9.128519   0.405803   0.008467   0.264462  -0.015207   0.009160
     8  N    0.405803   7.513135  -0.005189  -0.097670   0.287180   0.000145
     9  O    0.008467  -0.005189   8.519043  -0.000010   0.000025  -0.001703
    10  O    0.264462  -0.097670  -0.000010   8.519041  -0.001703   0.000025
    11  H   -0.015207   0.287180   0.000025  -0.001703   0.366069   0.000000
    12  H    0.009160   0.000145  -0.001703   0.000025   0.000000   0.366069
    13  C    0.179063   0.018817  -0.005870   0.000181   0.013844   0.000211
    14  C   -0.075831  -0.033429  -0.000811   0.000608  -0.009020  -0.000018
    15  C   -0.021820   0.046397  -0.005926   0.000310   0.001292   0.000013
    16  H    0.000050   0.000043   0.000007   0.000000   0.000000   0.000000
    17  C    0.027181   0.064867  -0.127912   0.000858  -0.002584   0.000475
    18  H   -0.000061   0.000034   0.000285   0.000000   0.000000   0.000000
    19  C   -0.105231   0.030154  -0.077812   0.006171  -0.021110   0.002943
    20  H    0.000286   0.001394  -0.004904   0.000008   0.000003  -0.000005
    21  C   -0.008788  -0.139828   0.102528   0.013993  -0.038909  -0.002307
    22  S   -0.013496  -0.029773  -0.000058  -0.000085  -0.002899   0.000000
    23  N    0.065997   0.042510   0.000705  -0.007296   0.032432  -0.000001
    24  N    0.010439  -0.003681  -0.000062  -0.000038   0.001302   0.000000
    25  C   -0.204405  -0.000895   0.000608  -0.000811  -0.000018  -0.009020
    26  C   -0.098817   0.025712   0.000181  -0.005870   0.000211   0.013842
    27  C   -0.313562  -0.087433   0.013993   0.102528  -0.002307  -0.038908
    28  C   -0.410891   0.087091   0.006171  -0.077811   0.002943  -0.021110
    29  H    0.022163   0.002812   0.000008  -0.004904  -0.000005   0.000003
    30  C    0.308018   0.032798   0.000858  -0.127913   0.000475  -0.002584
    31  H   -0.001904   0.000002   0.000000   0.000285   0.000000   0.000000
    32  C   -0.027709   0.003247   0.000310  -0.005926   0.000013   0.001292
    33  H   -0.000039   0.000000   0.000000   0.000007   0.000000   0.000000
    34  S    0.003414   0.000165  -0.000085  -0.000058   0.000000  -0.002899
    35  N    0.006823   0.000078  -0.000038  -0.000062   0.000000   0.001302
    36  N    0.023483  -0.001483  -0.007296   0.000705  -0.000001   0.032432
             13         14         15         16         17         18
     1  N    0.025712  -0.000895   0.003247   0.000000   0.032799   0.000002
     2  C   -0.098817  -0.204406  -0.027710  -0.000039   0.308018  -0.001904
     3  C   -0.139235  -0.129233  -0.010537  -0.000007   0.105601  -0.000150
     4  C   -0.253904   0.041550  -0.079498   0.000063   0.056385  -0.000564
     5  C    0.121672  -0.569145   0.012511   0.000067  -0.269064  -0.002851
     6  C   -0.913240  -1.112476  -0.295486   0.002908  -0.700342  -0.008983
     7  C    0.179063  -0.075831  -0.021820   0.000050   0.027181  -0.000061
     8  N    0.018817  -0.033429   0.046397   0.000043   0.064867   0.000034
     9  O   -0.005870  -0.000811  -0.005926   0.000007  -0.127912   0.000285
    10  O    0.000181   0.000608   0.000310   0.000000   0.000858   0.000000
    11  H    0.013844  -0.009020   0.001292   0.000000  -0.002584   0.000000
    12  H    0.000211  -0.000018   0.000013   0.000000   0.000475   0.000000
    13  C    8.801882  -1.673202  -1.622719   0.015276   1.534665  -0.003205
    14  C   -1.673202  11.979535  -2.017703   0.099025  -1.122798  -0.001128
    15  C   -1.622719  -2.017703  11.640567   0.229086   0.268825   0.000997
[...]
 0.00068969,0.00000052,0.00000020,0.00002537,0.00000005,0.00000018,0.00
 001707,0.00000010,0.00000003,0.00002071,-0.00000013,-0.00000019,0.0000
 0569,-0.00000002,-0.00000003,-0.00000048,-0.00000003,0.00000009,0.0000
 6925,-0.00000003,0.00000010,-0.00006560,0.,0.,0.00001276,0.00000002,0.
 ,0.00005714,-0.00000003,0.00000003,-0.00000561,0.00000016,-0.00000005,
 0.00000071,-0.00000009,-0.00000006,-0.00000008,0.,0.,0.00000166,0.0000
 0014,0.00000010,-0.00000234,0.,-0.00000002,-0.00000047,-0.00000008,0.0
 0000004,0.00000588,0.00000003,0.00000001,0.00000558,-0.00000004,-0.000
 00011,-0.00000531,-0.00000002,-0.00000013,0.00000561,0.00000001,0.,-0.
 00001170,-0.00000007,0.00000009,-0.00000258,0.00000022,-0.00000027,0.0
 0741721,-0.00000004,-0.00000009,-0.00016891,0.00000044,-0.00000071,0.0
 0569990,-0.00000025,0.00000057,0.00288608,0.,-0.00000003,-0.00348077,0
 .00000060,0.00000414,-0.03694683,-0.00000017,-0.00000431,0.02543201,0.
 00223487,-0.00162539,-0.00000023,-0.00330885,-0.00285016,0.00000090,-0
 .01195765,0.00282327,-0.00000164,0.00564456,0.00038036,0.00000483,0.00
 016599,0.00357882,-0.00000282,-0.00050515,0.00105900,-0.00000022,-0.00
 092750,0.00041115,-0.00000028,0.00075977,-0.00083614,-0.00000165,0.000
 38967,0.00226988,0.00000099,0.00025395,-0.00057325,0.00000068,-0.00043
 450,0.00008570,0.00000076,-0.00058686,0.00017028,-0.00000026,0.0006359
 3,0.00012646,0.00000462,0.00006079,0.00072000,-0.00000122,-0.00066665,
 -0.00130977,-0.00000341,-0.00007771,0.00000393,-0.00000022,0.00230343,
 0.00035427,0.00000384,0.00005206,0.00008718,-0.00000021,-0.00077185,0.
 00223043,0.00000444,-0.00008477,-0.00000224,-0.00000007,-0.00040543,-0
 .00188527,-0.00000813,-0.00116694,-0.00187101,-0.00000076,0.00152148,-
 0.00010611,0.00000098,-0.00097913,0.00086611,0.00000014,-0.10814351,0.
 04596067,0.00000395,0.01278288,0.02610829,-0.00000423,0.00380980,-0.02
 523064,0.00000076,-0.06305594,0.01630590,-0.00000171,-0.00221320,0.003
 32945,0.00000031,-0.29267548,-0.12643313,0.00000467,0.00454823,0.00255
 310,-0.00000036,0.74151460,0.00036659,0.00148411,-0.00000011,-0.001639
 24,-0.00363995,0.00000021,-0.00449703,-0.00017643,-0.00000037,0.003717
 99,0.00146294,0.00000092,0.00370994,0.00311597,-0.00000048,-0.00443901
 ,0.00109409,-0.00000001,-0.00259681,0.00101748,-0.00000009,0.00138985,
 -0.00132868,-0.00000036,-0.00009475,0.00357161,0.00000013,0.00146846,-
 0.00075263,0.00000012,-0.00046813,0.00010033,0.00000018,-0.00213162,0.
 00013980,-0.00000002,0.00038429,-0.00061905,0.00000108,-0.00014175,0.0
 0091035,-0.00000017,-0.00130818,-0.00163592,-0.00000078,-0.00010601,-0
 .00001112,-0.00000002,0.00356666,0.00020493,0.00000078,0.00006931,0.00
 012534,-0.00000003,-0.00147655,0.00393493,0.00000078,-0.00006205,-0.00
 000142,-0.00000002,0.00171503,-0.00356894,-0.00000161,-0.00146842,-0.0
 0244036,-0.00000015,0.00183100,0.00044927,0.00000007,-0.00099823,0.001
 10907,0.00000004,0.03598062,-0.27702686,0.00000364,0.02738356,-0.01634
 591,-0.00000084,-0.00839137,-0.02680443,0.00000055,-0.02202271,0.04694
 565,-0.00000076,0.00318575,-0.00123477,0.00000011,-0.06703920,-0.17988
 679,0.00000243,-0.02787745,-0.01222079,0.00000032,-0.02119882,0.631159
 58,0.00000020,-0.00000159,0.00003754,-0.00000170,-0.00000141,-0.000006
 50,-0.00000787,0.00000210,-0.00088952,0.00000528,0.00000215,0.00000562
 ,0.00000077,0.00000197,0.00037245,0.00000107,0.00000050,-0.00014686,-0
 .00000149,-0.00000228,-0.00005339,-0.00000004,-0.00000038,-0.00006984,
 -0.00000044,0.00000120,-0.00000508,-0.00000042,0.00000120,0.00001376,0
 .00000009,-0.00000007,-0.00001032,0.00000040,0.00000013,-0.00002653,-0
 .00000059,-0.00000014,0.00003931,0.00000169,-0.00000075,0.00000578,-0.
 00000112,-0.00000073,-0.00001979,-0.00000008,0.00000011,0.00000174,0.0
 0000165,0.00000120,0.00005673,0.00000002,-0.00000017,0.00000004,-0.000
 00089,0.00000049,-0.00015915,0.00000035,0.00000016,0.00000314,-0.00000
 030,-0.00000121,0.00007577,-0.00000032,-0.00000135,-0.00002987,0.00000
 027,0.00000033,0.00005394,-0.00000060,0.00000111,-0.00000215,0.0000011
 7,-0.00000152,-0.05529450,-0.00000090,-0.00000078,0.00090806,0.0000048
 3,-0.00000861,-0.00013801,-0.00000247,0.00000601,0.00793847,0.00000032
 ,0.00000038,0.00501995,0.00000821,0.00000564,-0.05211779,0.00000035,0.
 00000009,0.00358647,-0.00000733,-0.00000746,0.10822877,-0.00006517,0.0
 0005822,-0.00000001,0.00001531,-0.00014514,0.00000004,-0.00005901,-0.0
 0000695,-0.00000009,0.00014061,0.00009413,0.00000027,0.00015557,0.0000
 8064,-0.00000012,-0.00020710,0.00001906,-0.00000001,0.00005729,-0.0002
 4876,-0.00000002,-0.00003855,0.00000086,-0.00000008,-0.00002887,0.0001
 5952,0.00000005,-0.00027557,0.00008519,0.00000003,-0.00001274,0.000013
 00,0.00000004,-0.00003922,-0.00000946,0.,0.00003200,-0.00002182,0.0000
 0028,-0.00000572,0.00006688,-0.00000008,-0.00007747,-0.00010651,-0.000
 00018,-0.00000785,-0.00000012,0.,0.00021320,0.00001522,0.00000022,0.00
 000433,0.00000919,0.,-0.00008764,0.00021988,0.00000026,-0.00000142,-0.
 00000097,0.,0.00006862,-0.00018102,-0.00000050,-0.00008446,-0.00015346
 ,-0.00000004,0.00011046,0.00001274,0.00000003,-0.00008296,0.00007305,0
 .00000001,0.00206641,-0.00146942,0.00000023,0.00073037,-0.00072128,-0.
 00000020,0.00022026,-0.00050812,0.,-0.00229482,-0.00413062,0.,-0.00066
 443,0.00089777,0.,-0.01705320,0.01542426,0.,0.00099281,-0.00027178,-0.
 00000005,-0.27905004,0.11938319,-0.00000022,0.29431069,0.00012560,0.00
 002413,0.,-0.00016484,-0.00003404,-0.00000002,-0.00023561,0.00017860,0
 .00000005,0.00021538,-0.00002653,-0.00000016,-0.00002592,0.00011812,0.
 00000008,0.00006704,0.00000065,0.,0.00007985,-0.00014385,0.00000001,-0
 .00001276,0.00003856,0.00000006,0.00003667,0.00003470,-0.00000003,-0.0
 0012686,0.00005405,-0.00000002,-0.00000428,0.00000048,-0.00000003,-0.0
 0015470,-0.00001183,0.,0.00001244,0.00001571,-0.00000015,0.00000770,0.
 00000662,0.00000005,0.00000556,-0.00001090,0.00000010,-0.00000003,0.00
 000043,0.,0.00000245,0.00000858,-0.00000012,-0.00000002,0.00000049,0.,
 0.00000458,-0.00001095,-0.00000014,-0.00000506,-0.00000059,0.,-0.00004
 932,0.00001835,0.00000027,-0.00000776,-0.00000985,0.00000001,0.0000142
 6,-0.00001306,-0.00000002,-0.00001144,0.00000446,0.,0.02946504,-0.0104
 6594,-0.00000015,-0.00304024,-0.00389793,0.00000025,-0.00000268,-0.000
 75999,-0.00000001,-0.00291595,-0.00143746,0.00000019,-0.00059959,0.000
 46690,0.,-0.01515966,0.01212587,-0.00000009,0.00056664,0.00091297,-0.0
 0000006,0.11886039,-0.12163874,0.00000063,-0.12873082,0.12325385,0.,0.
 00000003,-0.00007793,0.,0.00000008,0.00002905,0.00000016,-0.00000007,-
 0.00069465,-0.00000005,-0.00000007,-0.00005461,-0.00000002,-0.00000008
 ,0.00000568,-0.00000001,0.00000001,-0.00000199,0.,0.00000008,0.0000473
 4,0.00000002,0.00000001,0.00005538,0.,-0.00000005,0.00000677,0.0000000
 2,-0.00000004,-0.00005997,0.,0.,0.00000662,0.,0.,-0.00000881,-0.000000
 02,0.,0.00000927,0.00000004,0.00000002,-0.00000458,-0.00000002,0.00000
 002,0.00000173,0.,0.,0.00000069,-0.00000004,-0.00000006,-0.00000246,0.
 ,0.,0.00000166,-0.00000003,-0.00000005,-0.00000478,0.,0.,0.00000095,0.
 00000003,0.00000006,-0.00001404,0.00000003,0.00000001,0.00000133,0.,-0
 .00000002,-0.00000416,0.,-0.00000002,-0.00000120,-0.00000040,0.0000003
 1,0.00268505,0.00000006,0.00000012,0.00438371,-0.00000006,0.00000012,-
 0.00056766,0.00000008,0.00000006,0.00649362,0.00000001,-0.00000001,0.0
 0045023,0.00000023,-0.00000025,0.00193506,-0.00000004,-0.00000006,-0.0
 0426019,0.,0.00000053,-0.02807648,0.00000004,-0.00000057,0.02023113,0.
 00221968,0.00242718,-0.00000014,-0.00291527,-0.00351118,0.00000029,-0.
 00535429,-0.00394869,-0.00000044,0.00481595,0.00292766,0.00000140,0.00
 443060,0.00367609,-0.00000076,-0.00487921,0.00084107,-0.00000011,-0.00
 271192,-0.00128941,-0.00000010,0.00128082,-0.00096909,-0.00000046,0.00
 033728,0.00349396,0.00000023,0.00040318,0.00057634,0.00000018,-0.00051
 802,0.00005964,0.00000023,-0.00617136,-0.00060904,-0.00000002,0.000311
 69,-0.00066998,0.00000132,-0.00010808,0.00053365,-0.00000020,-0.001163
 57,-0.00146923,-0.00000104,-0.00008436,-0.00000834,-0.00000005,0.00338
 296,0.00032899,0.00000114,0.00006187,0.00009403,-0.00000006,-0.0013641
 5,0.00386526,0.00000114,-0.00010159,0.00000987,-0.00000002,0.00169605,
 -0.00374890,-0.00000221,-0.00145996,-0.00228811,-0.00000016,0.00174186
 ,0.00052520,0.00000017,-0.00075738,0.00111955,-0.00000004,-0.01581308,
 -0.00097630,0.00000153,-0.05423856,-0.07142201,0.00000013,0.00917455,0
 .00132822,0.00000017,-0.00114813,0.00055142,-0.00000059,0.00015026,-0.
 00003810,0.00000007,0.00149500,0.00262369,0.00000046,-0.00003070,-0.00
 017176,-0.00000010,-0.00339414,-0.00405885,-0.00000102,0.00004944,0.00
 038569,0.00000002,0.27327818,0.00342758,0.00127833,-0.00000023,-0.0039
 0815,-0.00427909,0.00000075,-0.00650425,-0.00266530,-0.00000117,0.0063
 4953,0.00273935,0.00000391,0.00556765,0.00502549,-0.00000220,-0.006499
 68,0.00169205,-0.00000026,-0.00387697,-0.00025503,-0.00000031,0.002070
 03,-0.00178199,-0.00000123,0.00023583,0.00445766,0.00000071,0.00101032
 ,-0.00032806,0.00000054,-0.00075632,0.00013510,0.00000059,-0.00547236,
 0.00084104,-0.00000019,0.00063859,-0.00083321,0.00000356,-0.00016085,0
 .00115876,-0.00000088,-0.00186751,-0.00244055,-0.00000262,-0.00015310,
 -0.00001125,-0.00000016,0.00533766,0.00045030,0.00000303,0.00010583,0.
 00017210,-0.00000016,-0.00215161,0.00590468,0.00000342,-0.00012907,0.0
 0000802,-0.00000005,0.00225617,-0.00548475,-0.00000634,-0.00228903,-0.
 00372695,-0.00000055,0.00281153,0.00062433,0.00000068,-0.00146666,0.00
 176972,0.00000004,-0.03870790,-0.10043567,0.00000502,-0.03165511,-0.06
 475858,-0.00000190,0.00997622,-0.00456326,0.00000040,0.00296718,0.0006
 8857,-0.00000160,-0.00012939,-0.00023644,0.00000023,-0.00213815,-0.001
 42767,0.00000135,-0.00035426,-0.00011629,-0.00000026,-0.00384424,0.007
 30130,-0.00000299,0.00036629,-0.00037604,0.00000006,0.03915081,0.33149
 046,-0.00000009,0.00000034,0.00043798,0.00000024,0.00000052,0.00007178
 ,0.00000178,-0.00000046,-0.00078573,-0.00000105,-0.00000056,-0.0002215
 3,-0.00000017,-0.00000065,0.00001642,-0.00000008,-0.00000002,0.0000111
 0,0.00000030,0.00000050,0.00001720,0.00000002,0.00000011,-0.00006502,0
 .00000005,-0.00000036,-0.00004253,0.00000007,-0.00000021,0.00003315,0.
 00000001,0.,0.00000841,0.00000007,-0.00000004,-0.00047070,-0.00000004,
 -0.00000004,-0.00005817,-0.00000012,0.00000015,0.00005503,0.00000010,0
 .00000025,-0.00002984,0.00000003,0.00000001,0.00000133,-0.00000032,-0.
 00000047,0.00002449,0.,0.00000005,0.00000565,-0.00000014,-0.00000039,-
 0.00004813,-0.00000007,0.,0.00000266,0.00000022,0.00000046,0.00004506,
 0.00000015,0.00000025,-0.00000562,-0.00000001,-0.00000002,0.00003362,0
 .00000010,-0.00000020,-0.00001259,0.00000043,0.00000234,0.00657621,0.0
 0000085,0.00000149,0.00918242,-0.00000091,0.00000159,0.00771082,0.0000
 0037,-0.00000107,0.00077462,-0.00000005,-0.00000007,-0.00106759,-0.000
 00107,-0.00000037,0.00154316,0.,0.00000003,-0.00110574,0.00000071,0.00
 000025,0.00661118,0.00000007,-0.00000004,-0.00060903,-0.00000156,-0.00
 000334,0.04606148,-0.00268401,0.00126065,0.00000001,0.00148121,-0.0026
 0495,-0.00000015,0.00142490,-0.00166699,0.00000025,-0.00094597,0.00051
 744,-0.00000104,0.00142473,0.00027445,0.00000064,-0.00295468,0.0008191
 4,0.00000004,-0.00109320,0.00170007,0.00000003,0.00067612,-0.00090910,
 0.00000031,-0.00043327,0.00222897,-0.00000025,0.00061120,-0.00138547,-
 0.00000013,-0.00012471,0.00010911,-0.00000014,0.00083955,-0.00094301,0
 .00000009,0.00014692,-0.00043920,-0.00000091,-0.00017262,0.00080914,0.
 00000040,-0.00098236,-0.00099650,0.00000059,-0.00008250,-0.00001089,0.
 00000006,0.00225661,-0.00007241,-0.00000077,0.00003417,0.00011636,0.00
 000004,-0.00106384,0.00243977,-0.00000114,-0.00002225,-0.00003476,0.,0
 .00151316,-0.00204664,0.00000194,-0.00075685,-0.00146751,0.00000019,0.
 00098725,0.00030316,-0.00000029,-0.00071762,0.00062093,-0.00000007,-0.
 25350398,-0.08883037,0.00000175,-0.05753849,0.01882441,0.00000089,-0.0
 0967338,0.00273189,0.00000014,-0.00822160,0.00769434,0.00000028,-0.000
 11662,0.00014971,-0.00000007,0.02002388,0.00580663,-0.00000043,0.00061
 768,0.00012966,0.00000007,-0.00186971,-0.03938638,0.00000119,0.0006033
 6,0.00021298,-0.00000003,-0.05384432,0.00372371,-0.00000009,0.41358804
 ,0.00185436,0.00018350,0.00000020,-0.00021203,0.00281531,-0.00000084,0
 .00320475,-0.00035673,0.00000142,-0.00225655,-0.00155951,-0.00000483,-
 0.00267278,-0.00160959,0.00000267,0.00332397,-0.00054967,0.00000030,0.
 00225485,0.00004026,0.00000038,-0.00069917,0.00120844,0.00000146,0.000
 41185,-0.00222740,-0.00000093,-0.00060766,0.00004229,-0.00000067,0.000
 35474,-0.00005746,-0.00000071,-0.00139122,0.00034848,0.00000023,-0.000
 26672,0.00047791,-0.00000433,0.00009308,-0.00035850,0.00000122,0.00086
 195,0.00111093,0.00000311,0.00007305,0.00000624,0.00000021,-0.00254609
 ,-0.00026284,-0.00000369,-0.00005654,-0.00006579,0.00000018,0.00100176
 ,-0.00292505,-0.00000441,-0.00003801,-0.00002488,0.00000005,-0.0012064
 6,0.00288029,0.00000802,0.00112130,0.00177055,0.00000072,-0.00131042,-
 0.00037219,-0.00000091,0.00062013,-0.00089755,-0.00000011,-0.12266396,
 -0.15913227,-0.00000177,-0.03885098,0.02757504,0.00000368,-0.00339493,
 -0.00231353,-0.00000010,-0.00967816,0.00407030,0.00000185,0.00006874,0
 .00040639,-0.00000030,0.02124471,-0.00210169,-0.00000156,-0.00118201,-
 0.00083854,0.00000034,-0.04574940,-0.05305885,0.00000449,0.00009441,0.
 00321149,-0.00000016,0.08925420,-0.13874408,0.00000005,0.09027344,0.36
 445627,0.00000006,-0.00000059,-0.00023300,-0.00000067,-0.00000066,-0.0
 0014918,-0.00000309,0.00000083,0.00039167,0.00000199,0.00000085,0.0000
 6461,0.00000043,0.00000082,0.00016467,0.00000030,0.00000020,-0.0001462
 3,-0.00000061,-0.00000095,0.00001063,0.00000004,-0.00000015,-0.0000115
 1,-0.00000019,0.00000056,0.00002369,-0.00000016,0.00000050,0.00000919,
 0.00000003,-0.00000004,-0.00000941,0.00000017,0.00000008,0.00041975,-0
 .00000028,-0.00000022,0.00002611,0.00000051,-0.00000040,-0.00000435,-0
 .00000045,-0.00000029,-0.00000188,-0.00000004,0.00000005,-0.00000121,0
 .00000068,0.00000053,0.00001318,0.,-0.00000006,-0.00000253,-0.00000029
 ,0.00000029,-0.00002336,0.00000015,0.00000007,-0.00000521,-0.00000009,
 -0.00000052,0.00001784,-0.00000019,-0.00000057,-0.00001263,0.00000019,
 0.00000021,0.00002251,-0.00000016,0.00000053,0.00000559,0.00000333,0.0
 0000027,-0.05664666,0.00000073,-0.00000060,0.01150042,0.00000195,-0.00
 000355,0.00289832,-0.00000110,0.00000247,-0.00184445,0.00000011,0.0000
 0013,0.00026940,0.00000197,0.00000128,0.00351797,0.00000001,0.,0.00080
 254,-0.00000081,0.00000065,0.00112495,-0.00000009,-0.00000002,-0.00231
 944,-0.00000155,0.00000012,-0.03654774,-0.00000309,-0.00000316,0.06021
 018,-0.01276080,0.00023400,0.00000012,0.00295953,0.00144885,-0.0000000
 5,0.00746967,0.00544161,-0.00000011,-0.00633141,-0.00313522,0.00000002
 ,-0.00557766,-0.00453763,-0.00000003,0.00585427,-0.00182312,0.00000005
 ,0.00376762,0.00063786,0.00000002,-0.00231564,0.00161713,0.,-0.0002077
 2,-0.00368990,0.00000008,-0.00109758,0.00012173,0.00000002,0.00061221,
 -0.00009706,-0.00000001,0.00129981,-0.00195321,0.,-0.00038881,0.000814
 00,-0.00000005,0.00016637,-0.00085704,-0.00000015,0.00152776,0.0018335
 7,0.00000008,0.00011079,0.00001402,-0.00000002,-0.00420985,-0.00029465
 ,-0.00000003,-0.00007597,-0.00013025,0.,0.00178592,-0.00473336,0.00000
 013,0.00013568,-0.00000247,0.,-0.00223768,0.00442590,-0.00000010,0.001
 74355,0.00281759,-0.00000004,-0.00212940,-0.00061947,0.00000013,0.0009
 8731,-0.00131682,0.00000005,0.00945553,0.00083102,-0.00000012,-0.09836
 474,-0.01287589,0.00000049,-0.00050254,-0.03573517,0.00000040,-0.00615
 110,-0.00312140,0.00000014,0.00083742,-0.00162831,0.00000004,-0.004951
 00,-0.00339154,0.,0.00008170,0.00005118,0.,-0.00440307,0.00725036,-0.0
 0000002,0.00036555,0.00118529,-0.00000004,-0.14877131,0.02606961,0.000
 00019,-0.04942681,0.01867186,0.00000021,0.31074241,-0.00288768,0.00565
 720,0.00000006,0.00199833,0.00058420,-0.00000039,0.01691674,-0.0040938
 7,0.00000058,-0.00677951,-0.00100458,-0.00000208,0.00097008,-0.0024025
 5,0.00000119,-0.00158922,-0.00046060,0.00000010,0.00082680,0.00199576,
 0.00000009,0.00010036,0.00064797,0.00000068,0.00004217,-0.00032082,-0.
 00000041,0.00028481,-0.00122229,-0.00000026,0.00027849,0.00001543,-0.0
 0000033,0.00039125,-0.00331374,0.00000015,-0.00041089,-0.00025936,-0.0
 0000208,-0.00016181,0.00008001,0.00000062,-0.00010961,0.00045155,0.000
 00142,0.00001292,-0.00001225,0.00000008,-0.00049052,-0.00039530,-0.000
 00165,-0.00003435,0.00002098,0.00000007,-0.00009151,-0.00040238,-0.000
 00206,-0.00006376,-0.00004926,0.00000002,0.00129181,0.00054096,0.00000
 376,0.00052588,0.00062460,0.00000037,-0.00061736,0.00019071,-0.0000004
 0,0.00030467,-0.00037106,-0.00000011,0.06772915,-0.04666139,-0.0000012
 4,0.00682949,-0.34734445,0.00000528,-0.03652112,-0.03799046,0.00000065
 ,-0.00887402,0.01137036,0.00000076,0.00023127,-0.00061003,-0.00000011,
 0.00699246,-0.00186853,-0.00000069,0.00010938,-0.00006780,0.00000014,0
 .00523100,-0.00173514,0.00000151,-0.00036727,-0.00163729,-0.00000002,-
 0.05859355,-0.03327300,-0.00000007,0.00004826,-0.04314760,0.00000133,0
 .00647688,0.50646401,-0.00000018,0.00000136,0.00194590,0.00000135,0.00
 000074,0.00061623,0.00000633,-0.00000165,-0.00051347,-0.00000483,-0.00
 000169,-0.00002643,-0.00000014,-0.00000143,-0.00047805,-0.00000111,-0.
 00000043,0.00034309,0.00000126,0.00000149,0.00004027,0.00000011,0.0000
 0031,-0.00010884,0.00000029,-0.00000069,0.00017957,0.00000026,-0.00000
 073,0.00003692,-0.00000006,0.,0.00003266,-0.00000020,0.,-0.00296512,0.
 00000032,-0.00000054,0.00000184,-0.00000196,0.00000024,-0.00008114,0.0
 0000096,0.00000061,0.00005374,0.,-0.00000007,-0.00000415,-0.00000113,-
 0.00000081,-0.00006113,-0.00000002,0.00000016,-0.00001171,0.00000080,-
 0.00000010,0.00016082,-0.00000022,-0.00000011,-0.00000914,0.00000036,0
 .00000081,-0.00017205,-0.00000004,0.00000101,0.00003371,0.00000012,0.0
 0000018,-0.00005205,0.00000078,-0.00000061,0.00002225,-0.00000187,0.00
 000405,0.01498225,0.00000056,0.00000452,-0.06068603,-0.00000339,0.0000
 0758,-0.00112947,0.00000278,-0.00000517,0.00335177,-0.00000032,-0.0000
 0020,0.00059276,-0.00000446,-0.00000242,-0.00163212,0.,0.00000017,0.00
 001628,0.00000300,0.00000048,0.00296210,0.00000013,-0.00000006,0.00041
 668,0.00000214,0.00000201,-0.03815383,-0.00000028,-0.00000208,0.016465
 58,-0.00000136,-0.00000694,0.06383033||0.00000171,-0.00000159,0.000000
 53,0.00000095,-0.00000413,-0.00000124,-0.00000192,0.00000014,-0.000000
 56,0.00000031,-0.00000266,-0.00000012,-0.00000018,0.00000274,0.0000000
 7,0.00000183,-0.00000016,0.00000050,-0.00000098,0.00000409,0.00000158,
 -0.00000170,0.00000157,-0.00000063,0.00000102,0.00000162,0.00000040,-0
 .00000103,-0.00000157,-0.00000052,-0.00000081,0.00000107,-0.00000022,0
 .00000078,-0.00000108,0.00000020,-0.00000109,0.00000260,-0.00000007,0.
 00000239,0.00000162,0.00000002,0.00000153,0.00000421,0.,0.00000109,0.0
 0000276,0.,0.00000019,0.00000214,0.,0.00000213,0.00000203,0.,0.0000008
 4,0.00000116,0.00000003,0.00000160,0.00000106,-0.00000003,-0.00000105,
 0.00000089,-0.00000001,-0.00000102,0.00000294,0.,0.00000001,0.00000249
 ,0.00000008,-0.00000091,0.00000415,-0.00000001,-0.00000237,-0.00000164
 ,-0.00000003,0.00000107,-0.00000262,0.00000007,0.00000106,-0.00000102,
 0.,-0.00000087,-0.00000104,-0.00000002,-0.00000159,-0.00000105,0.00000
 003,-0.00000016,-0.00000211,0.,-0.00000213,-0.00000203,0.,-0.00000156,
 -0.00000424,0.,-0.00000109,-0.00000276,0.,0.00000100,-0.00000297,0.,0.
 00000089,-0.00000411,0.00000002,0.00000004,-0.00000250,-0.00000007|||@


 IF AT FIRST YOU DON'T SUCCEED, TRY, TRY AGAIN.
 THEN GIVE UP;
 THERE'S NO USE BEING A DAMN FOOL ABOUT IT.

                                 -- W. C. FIELDS
 Job cpu time:  0 days  6 hours 54 minutes 24.0 seconds.
 File lengths (MBytes):  RWF=   2313 Int=      0 D2E=      0 Chk=     29 Scr=      1
 Normal termination of Gaussian 09 at Wed Sep 27 03:02:22 2023.
