 Entering Gaussian System, Link 0=g09
 Initial command:
 /apps/software//g09/l1.exe /scratch/nathalia.rosa/82511.cluster.abaxnet/Gau-6158.inp -scrdir=/scratch/nathalia.rosa/82511.cluster.abaxnet/
 Entering Link 1 = /apps/software//g09/l1.exe PID=      6159.
  
 Copyright (c) 1988,1990,1992,1993,1995,1998,2003,2009, Gaussian, Inc.
                  All Rights Reserved.
  
 This is part of the Gaussian(R) 09 program.  It is based on
 the Gaussian(R) 03 system (copyright 2003, Gaussian, Inc.),
 the Gaussian(R) 98 system (copyright 1998, Gaussian, Inc.),
 the Gaussian(R) 94 system (copyright 1995, Gaussian, Inc.),
 the Gaussian 92(TM) system (copyright 1992, Gaussian, Inc.),
 the Gaussian 90(TM) system (copyright 1990, Gaussian, Inc.),
 the Gaussian 88(TM) system (copyright 1988, Gaussian, Inc.),
 the Gaussian 86(TM) system (copyright 1986, Carnegie Mellon
 University), and the Gaussian 82(TM) system (copyright 1983,
 Carnegie Mellon University). Gaussian is a federally registered
 trademark of Gaussian, Inc.
  
 This software contains proprietary and confidential information,
 including trade secrets, belonging to Gaussian, Inc.
  
 This software is provided under written license and may be
 used, copied, transmitted, or stored only in accord with that
 written license.
  
 The following legend is applicable only to US Government
 contracts under FAR:
  
                    RESTRICTED RIGHTS LEGEND
  
 Use, reproduction and disclosure by the US Government is
 subject to restrictions as set forth in subparagraphs (a)
 and (c) of the Commercial Computer Software - Restricted
 Rights clause in FAR 52.227-19.
  
 Gaussian, Inc.
 340 Quinnipiac St., Bldg. 40, Wallingford CT 06492
  
  
 ---------------------------------------------------------------
 Warning -- This program may not be used in any manner that
 competes with the business of Gaussian, Inc. or will provide
 assistance to any competitor of Gaussian, Inc.  The licensee
 of this program is prohibited from giving any competitor of
 Gaussian, Inc. access to this program.  By using this program,
 the user acknowledges that Gaussian, Inc. is engaged in the
 business of creating and licensing software in the field of
 computational chemistry and represents and warrants to the
 licensee that it is not a competitor of Gaussian, Inc. and that
 it will not use this program in any manner prohibited above.
 ---------------------------------------------------------------
  

 Cite this work as:
 Gaussian 09, Revision A.02,
 M. J. Frisch, G. W. Trucks, H. B. Schlegel, G. E. Scuseria, 
 M. A. Robb, J. R. Cheeseman, G. Scalmani, V. Barone, B. Mennucci, 
 G. A. Petersson, H. Nakatsuji, M. Caricato, X. Li, H. P. Hratchian, 
 A. F. Izmaylov, J. Bloino, G. Zheng, J. L. Sonnenberg, M. Hada, 
 M. Ehara, K. Toyota, R. Fukuda, J. Hasegawa, M. Ishida, T. Nakajima, 
 Y. Honda, O. Kitao, H. Nakai, T. Vreven, J. A. Montgomery, Jr., 
 J. E. Peralta, F. Ogliaro, M. Bearpark, J. J. Heyd, E. Brothers, 
 K. N. Kudin, V. N. Staroverov, R. Kobayashi, J. Normand, 
 K. Raghavachari, A. Rendell, J. C. Burant, S. S. Iyengar, J. Tomasi, 
 M. Cossi, N. Rega, J. M. Millam, M. Klene, J. E. Knox, J. B. Cross, 
 V. Bakken, C. Adamo, J. Jaramillo, R. Gomperts, R. E. Stratmann, 
 O. Yazyev, A. J. Austin, R. Cammi, C. Pomelli, J. W. Ochterski, 
 R. L. Martin, K. Morokuma, V. G. Zakrzewski, G. A. Voth, 
 P. Salvador, J. J. Dannenberg, S. Dapprich, A. D. Daniels, 
 O. Farkas, J. B. Foresman, J. V. Ortiz, J. Cioslowski, 
 and D. J. Fox, Gaussian, Inc., Wallingford CT, 2009.
 
 ******************************************
 Gaussian 09:  EM64L-G09RevA.02 11-Jun-2009
                 5-Sep-2023 
 ******************************************
 %chk=/home/nathalia.rosa/DPP-SUB/DPP-SUB-6/DPP-SUB-6-OPT-FREQ.chk
 ----------------------------------------------------
 # opt=tight freq b3lyp/6-31+g(d,p) geom=connectivity
 ----------------------------------------------------
 1/7=10,14=-1,18=20,19=15,26=3,38=1,57=2/1,3;
 2/9=110,12=2,17=6,18=5,40=1/2;
 3/5=1,6=6,7=111,11=2,16=1,25=1,30=1,71=1,74=-5/1,2,3;
 4//1;
 5/5=2,38=5/2;
 6/7=2,8=2,9=2,10=2,28=1/1;
 7//1,2,3,16;
 1/7=10,14=-1,18=20,19=15/3(2);
 2/9=110/2;
 99//99;
 2/9=110/2;
 3/5=1,6=6,7=111,11=2,16=1,25=1,30=1,71=1,74=-5/1,2,3;
 4/5=5,16=3/1;
 5/5=2,38=5/2;
 7//1,2,3,16;
 1/7=10,14=-1,18=20,19=15/3(-5);
 2/9=110/2;
 6/7=2,8=2,9=2,10=2,19=2,28=1/1;
 99/9=1/99;
 -------
 Energy:
 -------
 Symbolic Z-matrix:
 Charge =  0 Multiplicity = 1
 N                     1.6052    1.39154   0.00016 
 C                     0.24991   1.79779   0.00015 
 C                     1.75605   0.01351   0.00013 
 C                     0.47525  -0.53177   0.00012 
 C                    -0.47528   0.53183   0.00014 
 C                    -1.75607  -0.01351   0.00008 
 C                    -0.24989  -1.79774   0.00008 
 N                    -1.60519  -1.39151   0.00007 
 O                    -0.11645   2.97113   0.00013 
 O                     0.11648  -2.97108   0.00008 
 H                    -2.38588  -2.03861  -0.00002 
 H                     2.38597   2.03856   0.00013 
 C                    -4.28958  -0.10921  -0.00003 
 C                    -5.56312   0.58884  -0.00011 
 C                    -5.61093   2.01102  -0.00012 
 H                    -6.56946   2.51767  -0.0002 
 C                    -4.41594   2.69093  -0.00004 
 H                    -4.4142    3.77642  -0.00002 
 C                    -3.15968   2.02114   0.00001 
 H                    -2.25084   2.61791   0.00005 
 C                    -3.05342   0.63421   0.00003 
 S                    -6.03815  -1.76399  -0.00008 
 N                    -4.4219   -1.44164  0. 
 N                    -6.62208  -0.23275  -0.00013 
 C                     5.56311  -0.58886  -0.00005 
 C                     4.28957   0.1092    0.00004 
 C                     3.05342  -0.63421   0.00007 
 C                     3.15966  -2.02114   0.00001 
 H                     2.25081  -2.6179    0.00004 
 C                     4.41592  -2.69095  -0.00007 
 H                     4.41415  -3.77644  -0.00012 
 C                     5.61091  -2.01106  -0.0001 
 H                     6.56946  -2.51768  -0.00015 
 S                     6.03817   1.76398   0.00002 
 N                     6.62207   0.23269  -0.00007 
 N                     4.4219    1.44162   0.00009 
 

 GradGradGradGradGradGradGradGradGradGradGradGradGradGradGradGradGradGrad
 Berny optimization.
 Initialization pass.
                           ----------------------------
                           !    Initial Parameters    !
                           ! (Angstroms and Degrees)  !
 --------------------------                            --------------------------
 ! Name  Definition              Value          Derivative Info.                !
 --------------------------------------------------------------------------------
 ! R1    R(1,2)                  1.4149         estimate D2E/DX2                !
 ! R2    R(1,3)                  1.3863         estimate D2E/DX2                !
 ! R3    R(1,12)                 1.014          estimate D2E/DX2                !
 ! R4    R(2,5)                  1.459          estimate D2E/DX2                !
 ! R5    R(2,9)                  1.2292         estimate D2E/DX2                !
 ! R6    R(3,4)                  1.392          estimate D2E/DX2                !
 ! R7    R(3,27)                 1.4501         estimate D2E/DX2                !
 ! R8    R(4,5)                  1.4264         estimate D2E/DX2                !
 ! R9    R(4,7)                  1.4589         estimate D2E/DX2                !
 ! R10   R(5,6)                  1.3921         estimate D2E/DX2                !
 ! R11   R(6,8)                  1.3862         estimate D2E/DX2                !
 ! R12   R(6,21)                 1.4501         estimate D2E/DX2                !
 ! R13   R(7,8)                  1.4149         estimate D2E/DX2                !
 ! R14   R(7,10)                 1.2292         estimate D2E/DX2                !
 ! R15   R(8,11)                 1.014          estimate D2E/DX2                !
 ! R16   R(13,14)                1.4523         estimate D2E/DX2                !
 ! R17   R(13,21)                1.4425         estimate D2E/DX2                !
 ! R18   R(13,23)                1.339          estimate D2E/DX2                !
 ! R19   R(14,15)                1.423          estimate D2E/DX2                !
 ! R20   R(14,24)                1.3403         estimate D2E/DX2                !
 ! R21   R(15,16)                1.0842         estimate D2E/DX2                !
 ! R22   R(15,17)                1.3749         estimate D2E/DX2                !
 ! R23   R(17,18)                1.0855         estimate D2E/DX2                !
 ! R24   R(17,19)                1.4237         estimate D2E/DX2                !
 ! R25   R(19,20)                1.0873         estimate D2E/DX2                !
 ! R26   R(19,21)                1.391          estimate D2E/DX2                !
 ! R27   R(22,23)                1.6481         estimate D2E/DX2                !
 ! R28   R(22,24)                1.6388         estimate D2E/DX2                !
 ! R29   R(25,26)                1.4523         estimate D2E/DX2                !
 ! R30   R(25,32)                1.423          estimate D2E/DX2                !
 ! R31   R(25,35)                1.3403         estimate D2E/DX2                !
 ! R32   R(26,27)                1.4425         estimate D2E/DX2                !
 ! R33   R(26,36)                1.339          estimate D2E/DX2                !
 ! R34   R(27,28)                1.391          estimate D2E/DX2                !
 ! R35   R(28,29)                1.0873         estimate D2E/DX2                !
 ! R36   R(28,30)                1.4237         estimate D2E/DX2                !
 ! R37   R(30,31)                1.0855         estimate D2E/DX2                !
 ! R38   R(30,32)                1.3749         estimate D2E/DX2                !
 ! R39   R(32,33)                1.0842         estimate D2E/DX2                !
 ! R40   R(34,35)                1.6388         estimate D2E/DX2                !
 ! R41   R(34,36)                1.6481         estimate D2E/DX2                !
 ! A1    A(2,1,3)              112.9334         estimate D2E/DX2                !
 ! A2    A(2,1,12)             123.6655         estimate D2E/DX2                !
 ! A3    A(3,1,12)             123.4012         estimate D2E/DX2                !
 ! A4    A(1,2,5)              103.1194         estimate D2E/DX2                !
 ! A5    A(1,2,9)              124.0267         estimate D2E/DX2                !
 ! A6    A(5,2,9)              132.8538         estimate D2E/DX2                !
 ! A7    A(1,3,4)              106.8141         estimate D2E/DX2                !
 ! A8    A(1,3,27)             122.7782         estimate D2E/DX2                !
 ! A9    A(4,3,27)             130.4077         estimate D2E/DX2                !
 ! A10   A(3,4,5)              108.7256         estimate D2E/DX2                !
 ! A11   A(3,4,7)              142.8649         estimate D2E/DX2                !
 ! A12   A(5,4,7)              108.4095         estimate D2E/DX2                !
 ! A13   A(2,5,4)              108.4075         estimate D2E/DX2                !
 ! A14   A(2,5,6)              142.8692         estimate D2E/DX2                !
 ! A15   A(4,5,6)              108.7234         estimate D2E/DX2                !
 ! A16   A(5,6,8)              106.8152         estimate D2E/DX2                !
 ! A17   A(5,6,21)             130.4053         estimate D2E/DX2                !
 ! A18   A(8,6,21)             122.7795         estimate D2E/DX2                !
 ! A19   A(4,7,8)              103.1186         estimate D2E/DX2                !
 ! A20   A(4,7,10)             132.8559         estimate D2E/DX2                !
 ! A21   A(8,7,10)             124.0255         estimate D2E/DX2                !
 ! A22   A(6,8,7)              112.9334         estimate D2E/DX2                !
 ! A23   A(6,8,11)             123.4067         estimate D2E/DX2                !
 ! A24   A(7,8,11)             123.66           estimate D2E/DX2                !
 ! A25   A(14,13,21)           120.2494         estimate D2E/DX2                !
 ! A26   A(14,13,23)           113.0569         estimate D2E/DX2                !
 ! A27   A(21,13,23)           126.6938         estimate D2E/DX2                !
 ! A28   A(13,14,15)           120.6534         estimate D2E/DX2                !
 ! A29   A(13,14,24)           113.466          estimate D2E/DX2                !
 ! A30   A(15,14,24)           125.8806         estimate D2E/DX2                !
 ! A31   A(14,15,16)           119.7848         estimate D2E/DX2                !
 ! A32   A(14,15,17)           117.7131         estimate D2E/DX2                !
 ! A33   A(16,15,17)           122.5021         estimate D2E/DX2                !
 ! A34   A(15,17,18)           119.7302         estimate D2E/DX2                !
 ! A35   A(15,17,19)           122.2965         estimate D2E/DX2                !
 ! A36   A(18,17,19)           117.9732         estimate D2E/DX2                !
 ! A37   A(17,19,20)           118.6448         estimate D2E/DX2                !
 ! A38   A(17,19,21)           122.446          estimate D2E/DX2                !
 ! A39   A(20,19,21)           118.9092         estimate D2E/DX2                !
 ! A40   A(6,21,13)            122.4462         estimate D2E/DX2                !
 ! A41   A(6,21,19)            120.9122         estimate D2E/DX2                !
 ! A42   A(13,21,19)           116.6416         estimate D2E/DX2                !
 ! A43   A(23,22,24)            99.5948         estimate D2E/DX2                !
 ! A44   A(13,23,22)           106.9505         estimate D2E/DX2                !
 ! A45   A(14,24,22)           106.9319         estimate D2E/DX2                !
 ! A46   A(26,25,32)           120.6532         estimate D2E/DX2                !
 ! A47   A(26,25,35)           113.4669         estimate D2E/DX2                !
 ! A48   A(32,25,35)           125.88           estimate D2E/DX2                !
 ! A49   A(25,26,27)           120.2494         estimate D2E/DX2                !
 ! A50   A(25,26,36)           113.0565         estimate D2E/DX2                !
 ! A51   A(27,26,36)           126.6941         estimate D2E/DX2                !
 ! A52   A(3,27,26)            122.4466         estimate D2E/DX2                !
 ! A53   A(3,27,28)            120.9115         estimate D2E/DX2                !
 ! A54   A(26,27,28)           116.6419         estimate D2E/DX2                !
 ! A55   A(27,28,29)           118.909          estimate D2E/DX2                !
 ! A56   A(27,28,30)           122.4462         estimate D2E/DX2                !
 ! A57   A(29,28,30)           118.6448         estimate D2E/DX2                !
 ! A58   A(28,30,31)           117.9722         estimate D2E/DX2                !
 ! A59   A(28,30,32)           122.2963         estimate D2E/DX2                !
 ! A60   A(31,30,32)           119.7315         estimate D2E/DX2                !
 ! A61   A(25,32,30)           117.713          estimate D2E/DX2                !
 ! A62   A(25,32,33)           119.7824         estimate D2E/DX2                !
 ! A63   A(30,32,33)           122.5046         estimate D2E/DX2                !
 ! A64   A(35,34,36)            99.5932         estimate D2E/DX2                !
 ! A65   A(25,35,34)           106.9321         estimate D2E/DX2                !
 ! A66   A(26,36,34)           106.9513         estimate D2E/DX2                !
 ! D1    D(3,1,2,5)              0.0012         estimate D2E/DX2                !
 ! D2    D(3,1,2,9)           -179.9981         estimate D2E/DX2                !
 ! D3    D(12,1,2,5)           179.9977         estimate D2E/DX2                !
 ! D4    D(12,1,2,9)            -0.0016         estimate D2E/DX2                !
 ! D5    D(2,1,3,4)             -0.001          estimate D2E/DX2                !
 ! D6    D(2,1,3,27)           179.9969         estimate D2E/DX2                !
 ! D7    D(12,1,3,4)          -179.9975         estimate D2E/DX2                !
 ! D8    D(12,1,3,27)            0.0004         estimate D2E/DX2                !
 ! D9    D(1,2,5,4)             -0.0009         estimate D2E/DX2                !
 ! D10   D(1,2,5,6)           -179.9971         estimate D2E/DX2                !
 ! D11   D(9,2,5,4)            179.9983         estimate D2E/DX2                !
 ! D12   D(9,2,5,6)              0.0021         estimate D2E/DX2                !
 ! D13   D(1,3,4,5)              0.0004         estimate D2E/DX2                !
 ! D14   D(1,3,4,7)            179.9989         estimate D2E/DX2                !
 ! D15   D(27,3,4,5)          -179.9973         estimate D2E/DX2                !
 ! D16   D(27,3,4,7)             0.0013         estimate D2E/DX2                !
 ! D17   D(1,3,27,26)            0.0003         estimate D2E/DX2                !
 ! D18   D(1,3,27,28)         -179.9986         estimate D2E/DX2                !
 ! D19   D(4,3,27,26)          179.9977         estimate D2E/DX2                !
 ! D20   D(4,3,27,28)           -0.0013         estimate D2E/DX2                !
 ! D21   D(3,4,5,2)              0.0004         estimate D2E/DX2                !
 ! D22   D(3,4,5,6)            179.9979         estimate D2E/DX2                !
 ! D23   D(7,4,5,2)           -179.9987         estimate D2E/DX2                !
 ! D24   D(7,4,5,6)             -0.0012         estimate D2E/DX2                !
 ! D25   D(3,4,7,8)           -179.9982         estimate D2E/DX2                !
 ! D26   D(3,4,7,10)             0.0028         estimate D2E/DX2                !
 ! D27   D(5,4,7,8)              0.0004         estimate D2E/DX2                !
 ! D28   D(5,4,7,10)          -179.9986         estimate D2E/DX2                !
 ! D29   D(2,5,6,8)            179.9976         estimate D2E/DX2                !
 ! D30   D(2,5,6,21)            -0.0017         estimate D2E/DX2                !
 ! D31   D(4,5,6,8)              0.0015         estimate D2E/DX2                !
 ! D32   D(4,5,6,21)          -179.9978         estimate D2E/DX2                !
 ! D33   D(5,6,8,7)             -0.0013         estimate D2E/DX2                !
 ! D34   D(5,6,8,11)          -179.997          estimate D2E/DX2                !
 ! D35   D(21,6,8,7)           179.9981         estimate D2E/DX2                !
 ! D36   D(21,6,8,11)            0.0024         estimate D2E/DX2                !
 ! D37   D(5,6,21,13)          179.9996         estimate D2E/DX2                !
 ! D38   D(5,6,21,19)            0.0008         estimate D2E/DX2                !
 ! D39   D(8,6,21,13)            0.0004         estimate D2E/DX2                !
 ! D40   D(8,6,21,19)         -179.9984         estimate D2E/DX2                !
 ! D41   D(4,7,8,6)              0.0005         estimate D2E/DX2                !
 ! D42   D(4,7,8,11)           179.9963         estimate D2E/DX2                !
 ! D43   D(10,7,8,6)           179.9997         estimate D2E/DX2                !
 ! D44   D(10,7,8,11)           -0.0046         estimate D2E/DX2                !
 ! D45   D(21,13,14,15)          0.0            estimate D2E/DX2                !
 ! D46   D(21,13,14,24)       -179.9986         estimate D2E/DX2                !
 ! D47   D(23,13,14,15)        179.9985         estimate D2E/DX2                !
 ! D48   D(23,13,14,24)         -0.0002         estimate D2E/DX2                !
 ! D49   D(14,13,21,6)        -179.999          estimate D2E/DX2                !
 ! D50   D(14,13,21,19)         -0.0002         estimate D2E/DX2                !
 ! D51   D(23,13,21,6)           0.0028         estimate D2E/DX2                !
 ! D52   D(23,13,21,19)       -179.9984         estimate D2E/DX2                !
 ! D53   D(14,13,23,22)          0.0006         estimate D2E/DX2                !
 ! D54   D(21,13,23,22)        179.9989         estimate D2E/DX2                !
 ! D55   D(13,14,15,16)        179.998          estimate D2E/DX2                !
 ! D56   D(13,14,15,17)         -0.0005         estimate D2E/DX2                !
 ! D57   D(24,14,15,16)         -0.0035         estimate D2E/DX2                !
 ! D58   D(24,14,15,17)        179.9979         estimate D2E/DX2                !
 ! D59   D(13,14,24,22)         -0.0004         estimate D2E/DX2                !
 ! D60   D(15,14,24,22)       -179.9989         estimate D2E/DX2                !
 ! D61   D(14,15,17,18)       -179.9982         estimate D2E/DX2                !
 ! D62   D(14,15,17,19)          0.0012         estimate D2E/DX2                !
 ! D63   D(16,15,17,18)          0.0032         estimate D2E/DX2                !
 ! D64   D(16,15,17,19)       -179.9973         estimate D2E/DX2                !
 ! D65   D(15,17,19,20)        179.9989         estimate D2E/DX2                !
 ! D66   D(15,17,19,21)         -0.0014         estimate D2E/DX2                !
 ! D67   D(18,17,19,20)         -0.0016         estimate D2E/DX2                !
 ! D68   D(18,17,19,21)        179.998          estimate D2E/DX2                !
 ! D69   D(17,19,21,6)         179.9997         estimate D2E/DX2                !
 ! D70   D(17,19,21,13)          0.0008         estimate D2E/DX2                !
 ! D71   D(20,19,21,6)          -0.0007         estimate D2E/DX2                !
 ! D72   D(20,19,21,13)       -179.9995         estimate D2E/DX2                !
 ! D73   D(24,22,23,13)         -0.0008         estimate D2E/DX2                !
 ! D74   D(23,22,24,14)          0.0007         estimate D2E/DX2                !
 ! D75   D(32,25,26,27)         -0.0003         estimate D2E/DX2                !
 ! D76   D(32,25,26,36)        179.9997         estimate D2E/DX2                !
 ! D77   D(35,25,26,27)        179.9997         estimate D2E/DX2                !
 ! D78   D(35,25,26,36)         -0.0003         estimate D2E/DX2                !
 ! D79   D(26,25,32,30)          0.0001         estimate D2E/DX2                !
 ! D80   D(26,25,32,33)       -179.9987         estimate D2E/DX2                !
 ! D81   D(35,25,32,30)       -179.9999         estimate D2E/DX2                !
 ! D82   D(35,25,32,33)          0.0013         estimate D2E/DX2                !
 ! D83   D(26,25,35,34)          0.0001         estimate D2E/DX2                !
 ! D84   D(32,25,35,34)       -179.9998         estimate D2E/DX2                !
 ! D85   D(25,26,27,3)        -179.9987         estimate D2E/DX2                !
 ! D86   D(25,26,27,28)          0.0003         estimate D2E/DX2                !
 ! D87   D(36,26,27,3)           0.0013         estimate D2E/DX2                !
 ! D88   D(36,26,27,28)       -179.9997         estimate D2E/DX2                !
 ! D89   D(25,26,36,34)          0.0002         estimate D2E/DX2                !
 ! D90   D(27,26,36,34)       -179.9997         estimate D2E/DX2                !
 ! D91   D(3,27,28,29)          -0.0013         estimate D2E/DX2                !
 ! D92   D(3,27,28,30)         179.999          estimate D2E/DX2                !
 ! D93   D(26,27,28,29)        179.9997         estimate D2E/DX2                !
 ! D94   D(26,27,28,30)         -0.0001         estimate D2E/DX2                !
 ! D95   D(27,28,30,31)       -179.9993         estimate D2E/DX2                !
 ! D96   D(27,28,30,32)         -0.0002         estimate D2E/DX2                !
 ! D97   D(29,28,30,31)          0.001          estimate D2E/DX2                !
 ! D98   D(29,28,30,32)       -179.9999         estimate D2E/DX2                !
 ! D99   D(28,30,32,25)          0.0001         estimate D2E/DX2                !
 ! D100  D(28,30,32,33)        179.9989         estimate D2E/DX2                !
 ! D101  D(31,30,32,25)        179.9993         estimate D2E/DX2                !
 ! D102  D(31,30,32,33)         -0.002          estimate D2E/DX2                !
 ! D103  D(36,34,35,25)          0.0            estimate D2E/DX2                !
 ! D104  D(35,34,36,26)         -0.0002         estimate D2E/DX2                !
 --------------------------------------------------------------------------------
 Trust Radius=3.00D-01 FncErr=1.00D-07 GrdErr=1.00D-06
 Number of steps in this run= 216 maximum allowed number of steps= 216.
 GradGradGradGradGradGradGradGradGradGradGradGradGradGradGradGradGradGrad

                          Input orientation:                          
 ---------------------------------------------------------------------
 Center     Atomic      Atomic             Coordinates (Angstroms)
 Number     Number       Type             X           Y           Z
 ---------------------------------------------------------------------
      1          7           0        1.605201    1.391539    0.000159
      2          6           0        0.249914    1.797791    0.000147
      3          6           0        1.756049    0.013512    0.000131
      4          6           0        0.475248   -0.531771    0.000123
      5          6           0       -0.475278    0.531827    0.000138
      6          6           0       -1.756066   -0.013510    0.000082
      7          6           0       -0.249885   -1.797736    0.000083
      8          7           0       -1.605193   -1.391508    0.000067
      9          8           0       -0.116450    2.971132    0.000133
     10          8           0        0.116478   -2.971076    0.000080
     11          1           0       -2.385881   -2.038611   -0.000016
     12          1           0        2.385974    2.038559    0.000133
     13          6           0       -4.289582   -0.109209   -0.000034
     14          6           0       -5.563117    0.588842   -0.000107
     15          6           0       -5.610926    2.011020   -0.000117
     16          1           0       -6.569458    2.517668   -0.000204
     17          6           0       -4.415935    2.690930   -0.000044
     18          1           0       -4.414196    3.776416   -0.000020
     19          6           0       -3.159678    2.021136    0.000014
     20          1           0       -2.250837    2.617910    0.000053
     21          6           0       -3.053424    0.634213    0.000030
     22         16           0       -6.038151   -1.763988   -0.000076
     23          7           0       -4.421900   -1.441638   -0.000001
     24          7           0       -6.622079   -0.232750   -0.000131
     25          6           0        5.563113   -0.588861   -0.000048
     26          6           0        4.289573    0.109199    0.000041
     27          6           0        3.053421   -0.634212    0.000070
     28          6           0        3.159662   -2.021137    0.000015
     29          1           0        2.250814   -2.617897    0.000040
     30          6           0        4.415921   -2.690954   -0.000068
     31          1           0        4.414148   -3.776439   -0.000119
     32          6           0        5.610911   -2.011060   -0.000102
     33          1           0        6.569459   -2.517676   -0.000147
     34         16           0        6.038165    1.763977    0.000017
     35          7           0        6.622070    0.232694   -0.000071
     36          7           0        4.421903    1.441617    0.000089
 ---------------------------------------------------------------------
                    Distance matrix (angstroms):
                    1          2          3          4          5
     1  N    0.000000
     2  C    1.414865   0.000000
     3  C    1.386259   2.334972   0.000000
     4  C    2.230676   2.340435   1.392043   0.000000
     5  C    2.251110   1.458961   2.290736   1.426443   0.000000
     6  C    3.643114   2.702733   3.512219   2.290711   1.392053
     7  C    3.689555   3.630098   2.702664   1.458933   2.340441
     8  N    4.248762   3.689587   3.643080   2.251085   2.230678
     9  O    2.336492   1.229208   3.500538   3.552525   2.465556
    10  O    4.609632   4.770733   3.405284   2.465548   3.552535
    11  H    5.262572   4.654610   4.622423   3.233671   3.202742
    12  H    1.014022   2.149586   2.120760   3.202729   3.233729
    13  C    6.082821   4.923786   6.046876   4.783530   3.867796
    14  C    7.213120   5.937414   7.341743   6.141468   5.088158
    15  C    7.242668   5.864718   7.632978   6.596006   5.344426
    16  H    8.251861   6.857263   8.693956   7.676390   6.409571
    17  C    6.159748   4.750563   6.727700   5.857429   4.493384
    18  H    6.474626   5.066446   7.227127   6.516682   5.103179
    19  C    4.806294   3.416899   5.309889   4.441849   3.069861
    20  H    4.046358   2.631796   4.778915   4.165577   2.739407
    21  C    4.719781   3.502279   4.849361   3.716321   2.580178
    22  S    8.269110   7.226758   7.994314   6.628931   6.018000
    23  N    6.659793   5.685046   6.347008   4.980955   4.412526
    24  N    8.386087   7.165709   8.381746   7.103623   6.194170
    25  C    4.425726   5.824619   3.854425   5.088185   6.141507
    26  C    2.974937   4.378377   2.535330   3.867805   4.783557
    27  C    2.490182   3.711373   1.450076   2.580207   3.716364
    28  C    3.750028   4.801130   2.471826   3.069901   4.441893
    29  H    4.061083   4.847876   2.677519   2.739445   4.165614
    30  C    4.956500   6.124087   3.793291   4.493437   5.857486
    31  H    5.882022   6.957937   4.629170   5.103215   6.516720
    32  C    5.255796   6.576293   4.354176   5.344467   6.596057
    33  H    6.318688   7.652444   5.438366   6.409620   7.676444
    34  S    4.448582   5.788350   4.626083   6.018015   6.628962
    35  N    5.148970   6.561547   4.870955   6.194177   7.103649
    36  N    2.817147   4.187165   3.024279   4.412521   4.980974
                    6          7          8          9         10
     6  C    0.000000
     7  C    2.334961   0.000000
     8  N    1.386233   1.414878   0.000000
     9  O    3.405353   4.770734   4.609662   0.000000
    10  O    3.500517   1.229206   2.336490   5.946772   0.000000
    11  H    2.120778   2.149535   1.014010   5.499804   2.670448
    12  H    4.622497   4.654558   5.262582   2.670546   5.499732
    13  C    2.535323   4.378387   2.974934   5.186861   5.253917
    14  C    3.854409   5.824619   4.425714   5.944871   6.703045
    15  C    4.354155   6.576274   5.255768   5.577731   7.591076
    16  H    5.438346   7.652432   6.318669   6.468921   8.650321
    17  C    3.793270   6.124059   4.956468   4.308606   7.252660
    18  H    4.629168   6.957920   5.882001   4.372540   8.127463
    19  C    2.471823   4.801112   3.750008   3.188060   5.971213
    20  H    2.677530   4.847859   4.061070   2.163417   6.069674
    21  C    1.450063   3.711362   2.490164   3.753266   4.800665
    22  S    4.626059   5.788364   4.448579   7.582078   6.271883
    23  N    3.024272   4.187185   2.817153   6.165180   4.789160
    24  N    4.870949   6.561558   5.148967   7.251763   7.273691
    25  C    7.341758   5.937367   7.213103   6.703058   5.944811
    26  C    6.046884   4.923726   6.082794   5.253922   5.186792
    27  C    4.849375   3.502231   4.719765   4.800686   3.753208
    28  C    5.309892   3.416858   4.806275   5.971236   3.188001
    29  H    4.778904   2.631760   4.046334   6.069694   2.163360
    30  C    6.727714   4.750535   6.159738   7.252696   4.308559
    31  H    7.227114   5.066406   6.474594   8.127486   4.372480
    32  C    7.632991   5.864677   7.242652   7.591107   5.577672
    33  H    8.693976   6.857242   8.251860   8.650341   6.468890
    34  S    7.994342   7.226712   8.269100   6.271882   7.582025
    35  N    8.381753   7.165641   8.386053   7.273699   7.251680
    36  N    6.347023   5.684981   6.659766   4.789161   6.165107
                   11         12         13         14         15
    11  H    0.000000
    12  H    6.276457   0.000000
    13  C    2.710474   7.012557   0.000000
    14  C    4.122904   8.080206   1.452297   0.000000
    15  C    5.176913   7.996947   2.498264   1.422981   0.000000
    16  H    6.185628   8.968239   3.478264   2.175567   1.084194
    17  C    5.146812   6.833122   2.802988   2.394744   1.374875
    18  H    6.158620   7.018722   3.887623   3.388310   2.132788
    19  C    4.132833   5.545679   2.411442   2.797854   2.451269
    20  H    4.658479   4.672865   3.404946   3.884368   3.414457
    21  C    2.754923   5.617761   1.442485   2.510103   2.904551
    22  S    3.662580   9.242578   2.407444   2.400305   3.799106
    23  N    2.121733   7.645843   1.338983   2.329211   3.651661
    24  N    4.605052   9.289987   2.335766   1.340304   2.461084
    25  C    8.080116   4.122808   9.864363  11.188386  11.472512
    26  C    7.012473   2.710373   8.581935   9.864358  10.081508
    27  C    5.617681   2.754849   7.361747   8.702907   9.059148
    28  C    5.545571   4.132762   7.690689   9.104881   9.653057
    29  H    4.672741   4.658417   7.005019   8.446342   9.123258
    30  C    6.833013   5.146744   9.080264  10.504202  11.074575
    31  H    7.018578   6.158546   9.444760  10.890431  11.575698
    32  C    7.996839   5.176836  10.081508  11.472506  11.920854
    33  H    8.968145   6.185533  11.122926  12.523971  12.995032
    34  S    9.242523   3.662498  10.496246  11.660647  11.651710
    35  N    9.289887   4.604960  10.917007  12.190391  12.361579
    36  N    7.645777   2.121638   8.848448  10.021370  10.048974
                   16         17         18         19         20
    16  H    0.000000
    17  C    2.160482   0.000000
    18  H    2.495917   1.085487   0.000000
    19  C    3.445743   1.423659   2.157504   0.000000
    20  H    4.319784   2.166329   2.454029   1.087259   0.000000
    21  C    3.988721   2.467088   3.424199   1.390987   2.139906
    22  S    4.314495   4.741084   5.773500   4.755289   5.791785
    23  N    4.504232   4.132572   5.218060   3.685649   4.603634
    24  N    2.750921   3.662646   4.576916   4.131371   5.218622
    25  C   12.523969  10.504210  10.890470   9.104898   8.446372
    26  C   11.122917   9.080265   9.444791   7.690699   7.005041
    27  C   10.125915   8.176053   8.672886   6.756735   6.221853
    28  C   10.735759   8.921505   9.538079   7.501602   7.127009
    29  H   10.206431   8.522276   9.236319   7.126995   6.904965
    30  C   12.157643  10.342454  10.945220   8.921519   8.522306
    31  H   12.659202  10.945192  11.618316   9.538067   9.236326
    32  C   12.995029  11.074581  11.575735   9.653074   9.123291
    33  H   14.070744  12.157650  12.659237  10.735778  10.206462
    34  S   12.630131  10.495115  10.644330   9.201437   8.332872
    35  N   13.387962  11.308425  11.591252   9.943899   9.187912
    36  N   11.043908   8.925702   9.139362   7.603697   6.775627
                   21         22         23         24         25
    21  C    0.000000
    22  S    3.828833   0.000000
    23  N    2.486339   1.648083   0.000000
    24  N    3.672455   1.638799   2.510418   0.000000
    25  C    8.702909  11.660628  10.021363  12.190395   0.000000
    26  C    7.361742  10.496224   8.848438  10.917009   1.452306
    27  C    6.237183   9.161500   7.518800   9.683825   2.510102
    28  C    6.756724   9.201407   7.603677   9.943882   2.797855
    29  H    6.221829   8.332833   6.775596   9.187881   3.884368
    30  C    8.176053  10.495089   8.925686  11.308413   2.394754
    31  H    8.672859  10.644271   9.139313  11.591205   3.388329
    32  C    9.059148  11.651682  10.048957  12.361571   1.423002
    33  H   10.125921  12.630118  11.043905  13.387963   2.175560
    34  S    9.161515  12.581095  10.940243  12.816735   2.400317
    35  N    9.683822  12.816705  11.170168  13.252325   1.340277
    36  N    7.518804  10.940230   9.301936  11.170185   2.329206
                   26         27         28         29         30
    26  C    0.000000
    27  C    1.442474   0.000000
    28  C    2.411437   1.390988   0.000000
    29  H    3.404936   2.139903   1.087257   0.000000
    30  C    2.803002   2.467102   1.423672   2.166339   0.000000
    31  H    3.887634   3.424203   2.157503   2.454024   1.085486
    32  C    2.498286   2.904559   2.451270   3.414455   1.374866
    33  H    3.478269   3.988729   3.445761   4.319808   2.160498
    34  S    2.407460   3.828839   4.755299   5.791791   4.741106
    35  N    2.335764   3.672435   4.131346   5.218596   3.662624
    36  N    1.338973   2.486324   3.685637   4.603616   4.132575
                   31         32         33         34         35
    31  H    0.000000
    32  C    2.132793   0.000000
    33  H    2.495967   1.084193   0.000000
    34  S    5.773529   3.799138   4.314490   0.000000
    35  N    4.576906   2.461072   2.750873   1.638833   0.000000
    36  N    5.218062   3.651673   4.504220   1.648096   2.510424
                   36
    36  N    0.000000
 Stoichiometry    C18H8N6O2S2
 Framework group  C1[X(C18H8N6O2S2)]
 Deg. of freedom   102
 Full point group                 C1      NOp   1
 Largest Abelian subgroup         C1      NOp   1
 Largest concise Abelian subgroup C1      NOp   1
                         Standard orientation:                         
 ---------------------------------------------------------------------
 Center     Atomic      Atomic             Coordinates (Angstroms)
 Number     Number       Type             X           Y           Z
 ---------------------------------------------------------------------
      1          7           0       -1.605201    1.391539   -0.000143
      2          6           0       -0.249914    1.797791   -0.000131
      3          6           0       -1.756049    0.013512   -0.000115
      4          6           0       -0.475248   -0.531771   -0.000107
      5          6           0        0.475278    0.531827   -0.000122
      6          6           0        1.756066   -0.013510   -0.000066
      7          6           0        0.249885   -1.797736   -0.000067
      8          7           0        1.605193   -1.391508   -0.000051
      9          8           0        0.116450    2.971132   -0.000117
     10          8           0       -0.116478   -2.971076   -0.000064
     11          1           0        2.385881   -2.038611    0.000032
     12          1           0       -2.385974    2.038559   -0.000117
     13          6           0        4.289582   -0.109209    0.000050
     14          6           0        5.563117    0.588842    0.000123
     15          6           0        5.610926    2.011020    0.000133
     16          1           0        6.569458    2.517668    0.000220
     17          6           0        4.415935    2.690930    0.000060
     18          1           0        4.414196    3.776416    0.000036
     19          6           0        3.159678    2.021136    0.000002
     20          1           0        2.250837    2.617910   -0.000037
     21          6           0        3.053424    0.634213   -0.000014
     22         16           0        6.038151   -1.763988    0.000092
     23          7           0        4.421900   -1.441638    0.000017
     24          7           0        6.622079   -0.232750    0.000147
     25          6           0       -5.563113   -0.588861    0.000065
     26          6           0       -4.289573    0.109199   -0.000025
     27          6           0       -3.053421   -0.634212   -0.000054
     28          6           0       -3.159662   -2.021137    0.000002
     29          1           0       -2.250814   -2.617897   -0.000023
     30          6           0       -4.415921   -2.690954    0.000084
     31          1           0       -4.414148   -3.776439    0.000135
     32          6           0       -5.610911   -2.011060    0.000118
     33          1           0       -6.569459   -2.517676    0.000163
     34         16           0       -6.038165    1.763977    0.000000
     35          7           0       -6.622070    0.232694    0.000088
     36          7           0       -4.421903    1.441617   -0.000072
 ---------------------------------------------------------------------
 Rotational constants (GHZ):      0.4473188      0.0694142      0.0600896
 Standard basis: 6-31+G(d,p) (6D, 7F)
 There are   580 symmetry adapted basis functions of A   symmetry.
 Integral buffers will be    131072 words long.
 Raffenetti 2 integral format.
 Two-electron integral symmetry is turned on.
   580 basis functions,  1000 primitive gaussians,   580 cartesian basis functions
   103 alpha electrons      103 beta electrons
       nuclear repulsion energy      2629.1748241174 Hartrees.
 NAtoms=   36 NActive=   36 NUniq=   36 SFac= 7.50D-01 NAtFMM=   80 NAOKFM=F Big=F
 One-electron integrals computed using PRISM.
 NBasis=   580 RedAO= T  NBF=   580
 NBsUse=   570 1.00D-06 NBFU=   570
 Harris functional with IExCor=  402 diagonalized for initial guess.
 ExpMin= 4.05D-02 ExpMax= 2.19D+04 ExpMxC= 3.30D+03 IAcc=2 IRadAn=         0 AccDes= 0.00D+00
 HarFok:  IExCor=  402 AccDes= 0.00D+00 IRadAn=         0 IDoV= 1
 ScaDFX=  1.000000  1.000000  1.000000  1.000000
 FoFCou: FMM=F IPFlag=           0 FMFlag=      100000 FMFlg1=           0
         NFxFlg=           0 DoJE=T BraDBF=F KetDBF=T FulRan=T
         Omega=  0.000000  0.000000  1.000000  0.000000  0.000000 ICntrl=     500 IOpCl=  0
         NMat0=    1 NMatS0=    1 NMatT0=    0 NMatD0=    1 NMtDS0=    0 NMtDT0=    0
         I1Cent=           4 NGrid=           0.
 Petite list used in FoFCou.
 Initial guess orbital symmetries:
       Occupied  (A) (A) (A) (A) (A) (A) (A) (A) (A) (A) (A) (A)
                 (A) (A) (A) (A) (A) (A) (A) (A) (A) (A) (A) (A)
                 (A) (A) (A) (A) (A) (A) (A) (A) (A) (A) (A) (A)
                 (A) (A) (A) (A) (A) (A) (A) (A) (A) (A) (A) (A)
                 (A) (A) (A) (A) (A) (A) (A) (A) (A) (A) (A) (A)
                 (A) (A) (A) (A) (A) (A) (A) (A) (A) (A) (A) (A)
                 (A) (A) (A) (A) (A) (A) (A) (A) (A) (A) (A) (A)
                 (A) (A) (A) (A) (A) (A) (A) (A) (A) (A) (A) (A)
                 (A) (A) (A) (A) (A) (A) (A)
       Virtual   (A) (A) (A) (A) (A) (A) (A) (A) (A) (A) (A) (A)
                 (A) (A) (A) (A) (A) (A) (A) (A) (A) (A) (A) (A)
                 (A) (A) (A) (A) (A) (A) (A) (A) (A) (A) (A) (A)
                 (A) (A) (A) (A) (A) (A) (A) (A) (A) (A) (A) (A)
                 (A) (A) (A) (A) (A) (A) (A) (A) (A) (A) (A) (A)
                 (A) (A) (A) (A) (A) (A) (A) (A) (A) (A) (A) (A)
                 (A) (A) (A) (A) (A) (A) (A) (A) (A) (A) (A) (A)
                 (A) (A) (A) (A) (A) (A) (A) (A) (A) (A) (A) (A)
                 (A) (A) (A) (A) (A) (A) (A) (A) (A) (A) (A) (A)
                 (A) (A) (A) (A) (A) (A) (A) (A) (A) (A) (A) (A)
                 (A) (A) (A) (A) (A) (A) (A) (A) (A) (A) (A) (A)
                 (A) (A) (A) (A) (A) (A) (A) (A) (A) (A) (A) (A)
                 (A) (A) (A) (A) (A) (A) (A) (A) (A) (A) (A) (A)
                 (A) (A) (A) (A) (A) (A) (A) (A) (A) (A) (A) (A)
                 (A) (A) (A) (A) (A) (A) (A) (A) (A) (A) (A) (A)
                 (A) (A) (A) (A) (A) (A) (A) (A) (A) (A) (A) (A)
                 (A) (A) (A) (A) (A) (A) (A) (A) (A) (A) (A) (A)
                 (A) (A) (A) (A) (A) (A) (A) (A) (A) (A) (A) (A)
                 (A) (A) (A) (A) (A) (A) (A) (A) (A) (A) (A) (A)
                 (A) (A) (A) (A) (A) (A) (A) (A) (A) (A) (A) (A)
                 (A) (A) (A) (A) (A) (A) (A) (A) (A) (A) (A) (A)
                 (A) (A) (A) (A) (A) (A) (A) (A) (A) (A) (A) (A)
                 (A) (A) (A) (A) (A) (A) (A) (A) (A) (A) (A) (A)
                 (A) (A) (A) (A) (A) (A) (A) (A) (A) (A) (A) (A)
                 (A) (A) (A) (A) (A) (A) (A) (A) (A) (A) (A) (A)
                 (A) (A) (A) (A) (A) (A) (A) (A) (A) (A) (A) (A)
                 (A) (A) (A) (A) (A) (A) (A) (A) (A) (A) (A) (A)
                 (A) (A) (A) (A) (A) (A) (A) (A) (A) (A) (A) (A)
                 (A) (A) (A) (A) (A) (A) (A) (A) (A) (A) (A) (A)
                 (A) (A) (A) (A) (A) (A) (A) (A) (A) (A) (A) (A)
                 (A) (A) (A) (A) (A) (A) (A) (A) (A) (A) (A) (A)
                 (A) (A) (A) (A) (A) (A) (A) (A) (A) (A) (A) (A)
                 (A) (A) (A) (A) (A) (A) (A) (A) (A) (A) (A) (A)
                 (A) (A) (A) (A) (A) (A) (A) (A) (A) (A) (A) (A)
                 (A) (A) (A) (A) (A) (A) (A) (A) (A) (A) (A) (A)
                 (A) (A) (A) (A) (A) (A) (A) (A) (A) (A) (A) (A)
                 (A) (A) (A) (A) (A) (A) (A) (A) (A) (A) (A) (A)
                 (A) (A) (A) (A) (A) (A) (A) (A) (A) (A) (A) (A)
                 (A) (A) (A) (A) (A) (A) (A) (A) (A) (A) (A)
 The electronic state of the initial guess is 1-A.
 Requested convergence on RMS density matrix=1.00D-08 within 128 cycles.
 Requested convergence on MAX density matrix=1.00D-06.
 Requested convergence on             energy=1.00D-06.
 No special actions if energy rises.
 EnCoef did     3 forward-backward iterations
 EnCoef did     1 forward-backward iterations
 EnCoef did     3 forward-backward iterations
 Restarting incremental Fock formation.
 SCF Done:  E(RB3LYP) =  -1966.12471195     A.U. after   23 cycles
             Convg  =    0.1516D-08             -V/T =  2.0069

 **********************************************************************

            Population analysis using the SCF density.

 **********************************************************************

 Orbital symmetries:
       Occupied  (A) (A) (A) (A) (A) (A) (A) (A) (A) (A) (A) (A)
                 (A) (A) (A) (A) (A) (A) (A) (A) (A) (A) (A) (A)
                 (A) (A) (A) (A) (A) (A) (A) (A) (A) (A) (A) (A)
                 (A) (A) (A) (A) (A) (A) (A) (A) (A) (A) (A) (A)
                 (A) (A) (A) (A) (A) (A) (A) (A) (A) (A) (A) (A)
                 (A) (A) (A) (A) (A) (A) (A) (A) (A) (A) (A) (A)
                 (A) (A) (A) (A) (A) (A) (A) (A) (A) (A) (A) (A)
                 (A) (A) (A) (A) (A) (A) (A) (A) (A) (A) (A) (A)
                 (A) (A) (A) (A) (A) (A) (A)
       Virtual   (A) (A) (A) (A) (A) (A) (A) (A) (A) (A) (A) (A)
                 (A) (A) (A) (A) (A) (A) (A) (A) (A) (A) (A) (A)
                 (A) (A) (A) (A) (A) (A) (A) (A) (A) (A) (A) (A)
                 (A) (A) (A) (A) (A) (A) (A) (A) (A) (A) (A) (A)
                 (A) (A) (A) (A) (A) (A) (A) (A) (A) (A) (A) (A)
                 (A) (A) (A) (A) (A) (A) (A) (A) (A) (A) (A) (A)
                 (A) (A) (A) (A) (A) (A) (A) (A) (A) (A) (A) (A)
                 (A) (A) (A) (A) (A) (A) (A) (A) (A) (A) (A) (A)
                 (A) (A) (A) (A) (A) (A) (A) (A) (A) (A) (A) (A)
                 (A) (A) (A) (A) (A) (A) (A) (A) (A) (A) (A) (A)
                 (A) (A) (A) (A) (A) (A) (A) (A) (A) (A) (A) (A)
                 (A) (A) (A) (A) (A) (A) (A) (A) (A) (A) (A) (A)
                 (A) (A) (A) (A) (A) (A) (A) (A) (A) (A) (A) (A)
                 (A) (A) (A) (A) (A) (A) (A) (A) (A) (A) (A) (A)
                 (A) (A) (A) (A) (A) (A) (A) (A) (A) (A) (A) (A)
                 (A) (A) (A) (A) (A) (A) (A) (A) (A) (A) (A) (A)
                 (A) (A) (A) (A) (A) (A) (A) (A) (A) (A) (A) (A)
                 (A) (A) (A) (A) (A) (A) (A) (A) (A) (A) (A) (A)
                 (A) (A) (A) (A) (A) (A) (A) (A) (A) (A) (A) (A)
                 (A) (A) (A) (A) (A) (A) (A) (A) (A) (A) (A) (A)
                 (A) (A) (A) (A) (A) (A) (A) (A) (A) (A) (A) (A)
                 (A) (A) (A) (A) (A) (A) (A) (A) (A) (A) (A) (A)
                 (A) (A) (A) (A) (A) (A) (A) (A) (A) (A) (A) (A)
                 (A) (A) (A) (A) (A) (A) (A) (A) (A) (A) (A) (A)
                 (A) (A) (A) (A) (A) (A) (A) (A) (A) (A) (A) (A)
                 (A) (A) (A) (A) (A) (A) (A) (A) (A) (A) (A) (A)
                 (A) (A) (A) (A) (A) (A) (A) (A) (A) (A) (A) (A)
                 (A) (A) (A) (A) (A) (A) (A) (A) (A) (A) (A) (A)
                 (A) (A) (A) (A) (A) (A) (A) (A) (A) (A) (A) (A)
                 (A) (A) (A) (A) (A) (A) (A) (A) (A) (A) (A) (A)
                 (A) (A) (A) (A) (A) (A) (A) (A) (A) (A) (A) (A)
                 (A) (A) (A) (A) (A) (A) (A) (A) (A) (A) (A) (A)
                 (A) (A) (A) (A) (A) (A) (A) (A) (A) (A) (A) (A)
                 (A) (A) (A) (A) (A) (A) (A) (A) (A) (A) (A) (A)
                 (A) (A) (A) (A) (A) (A) (A) (A) (A) (A) (A) (A)
                 (A) (A) (A) (A) (A) (A) (A) (A) (A) (A) (A) (A)
                 (A) (A) (A) (A) (A) (A) (A) (A) (A) (A) (A) (A)
                 (A) (A) (A) (A) (A) (A) (A) (A) (A) (A) (A) (A)
                 (A) (A) (A) (A) (A) (A) (A) (A) (A) (A) (A)
 The electronic state is 1-A.
 Alpha  occ. eigenvalues --  -89.00035 -89.00035 -19.14454 -19.14454 -14.39972
 Alpha  occ. eigenvalues --  -14.39971 -14.39748 -14.39747 -14.39160 -14.39160
 Alpha  occ. eigenvalues --  -10.31192 -10.31192 -10.28003 -10.28003 -10.27408
 Alpha  occ. eigenvalues --  -10.27408 -10.26879 -10.26878 -10.24697 -10.24697
 Alpha  occ. eigenvalues --  -10.23226 -10.23225 -10.22956 -10.22956 -10.22831
 Alpha  occ. eigenvalues --  -10.22830 -10.20712 -10.20667  -8.05352  -8.05352
 Alpha  occ. eigenvalues --   -6.01916  -6.01916  -6.01331  -6.01331  -6.01092
 Alpha  occ. eigenvalues --   -6.01092  -1.05880  -1.05362  -1.04493  -1.04489
 Alpha  occ. eigenvalues --   -0.98805  -0.97456  -0.91843  -0.91779  -0.88552
 Alpha  occ. eigenvalues --   -0.88540  -0.82085  -0.80644  -0.79870  -0.78658
 Alpha  occ. eigenvalues --   -0.78552  -0.73570  -0.70722  -0.68664  -0.67301
 Alpha  occ. eigenvalues --   -0.66769  -0.64241  -0.63787  -0.62913  -0.61580
 Alpha  occ. eigenvalues --   -0.58453  -0.55547  -0.54466  -0.53819  -0.53284
 Alpha  occ. eigenvalues --   -0.52335  -0.51231  -0.50368  -0.49910  -0.49361
 Alpha  occ. eigenvalues --   -0.48436  -0.48305  -0.47759  -0.46903  -0.46380
 Alpha  occ. eigenvalues --   -0.44809  -0.44379  -0.43495  -0.41915  -0.41763
 Alpha  occ. eigenvalues --   -0.40696  -0.40687  -0.40512  -0.40056  -0.39837
 Alpha  occ. eigenvalues --   -0.39603  -0.38571  -0.36748  -0.36494  -0.35033
 Alpha  occ. eigenvalues --   -0.35019  -0.34230  -0.34183  -0.32976  -0.32934
 Alpha  occ. eigenvalues --   -0.29008  -0.28920  -0.28832  -0.27741  -0.27427
 Alpha  occ. eigenvalues --   -0.27173  -0.26996  -0.20755
 Alpha virt. eigenvalues --   -0.13071  -0.11375  -0.08944  -0.04074  -0.02265
 Alpha virt. eigenvalues --   -0.02263  -0.01886  -0.01846  -0.00666  -0.00389
 Alpha virt. eigenvalues --    0.00015   0.00999   0.01086   0.01263   0.01745
 Alpha virt. eigenvalues --    0.01840   0.02110   0.03154   0.03479   0.04069
 Alpha virt. eigenvalues --    0.04093   0.04544   0.04921   0.05684   0.06157
 Alpha virt. eigenvalues --    0.06162   0.06748   0.07113   0.07425   0.07542
 Alpha virt. eigenvalues --    0.08042   0.08139   0.08179   0.08751   0.09407
 Alpha virt. eigenvalues --    0.09672   0.09925   0.10154   0.10393   0.10696
 Alpha virt. eigenvalues --    0.10949   0.10985   0.11504   0.11585   0.11680
 Alpha virt. eigenvalues --    0.12070   0.12780   0.13337   0.13587   0.13872
 Alpha virt. eigenvalues --    0.14617   0.15083   0.15096   0.15411   0.15689
 Alpha virt. eigenvalues --    0.16052   0.16166   0.16175   0.16509   0.16893
 Alpha virt. eigenvalues --    0.16894   0.17079   0.18092   0.18152   0.18164
 Alpha virt. eigenvalues --    0.18407   0.18581   0.19224   0.19396   0.19768
 Alpha virt. eigenvalues --    0.19782   0.20466   0.20716   0.20741   0.20848
 Alpha virt. eigenvalues --    0.21097   0.21419   0.21478   0.21808   0.21892
 Alpha virt. eigenvalues --    0.22233   0.22891   0.23036   0.23339   0.23421
 Alpha virt. eigenvalues --    0.23554   0.24097   0.24190   0.24423   0.24490
 Alpha virt. eigenvalues --    0.24867   0.25104   0.25337   0.25621   0.26057
 Alpha virt. eigenvalues --    0.26131   0.26288   0.26374   0.26474   0.26697
 Alpha virt. eigenvalues --    0.27574   0.27591   0.28065   0.28261   0.28594
 Alpha virt. eigenvalues --    0.28686   0.28741   0.28834   0.29235   0.29625
 Alpha virt. eigenvalues --    0.29851   0.30390   0.30907   0.31107   0.31243
 Alpha virt. eigenvalues --    0.31604   0.32654   0.32785   0.33024   0.33032
 Alpha virt. eigenvalues --    0.33334   0.33920   0.34519   0.35313   0.36002
 Alpha virt. eigenvalues --    0.36586   0.36796   0.36940   0.37868   0.37923
 Alpha virt. eigenvalues --    0.38872   0.38883   0.40489   0.41609   0.41822
 Alpha virt. eigenvalues --    0.41834   0.42360   0.44086   0.44679   0.44773
 Alpha virt. eigenvalues --    0.45640   0.47033   0.47108   0.47659   0.47755
 Alpha virt. eigenvalues --    0.48186   0.48784   0.49023   0.49112   0.50236
 Alpha virt. eigenvalues --    0.51294   0.51702   0.54943   0.55412   0.57960
 Alpha virt. eigenvalues --    0.59323   0.61309   0.62122   0.62830   0.63358
 Alpha virt. eigenvalues --    0.63416   0.64465   0.64638   0.64962   0.66091
 Alpha virt. eigenvalues --    0.66305   0.66397   0.66637   0.66828   0.68606
 Alpha virt. eigenvalues --    0.69310   0.69704   0.69923   0.70081   0.70654
 Alpha virt. eigenvalues --    0.71010   0.71517   0.72112   0.72359   0.72434
 Alpha virt. eigenvalues --    0.72787   0.73895   0.73950   0.75051   0.75172
 Alpha virt. eigenvalues --    0.75479   0.76563   0.76589   0.77360   0.78249
 Alpha virt. eigenvalues --    0.79429   0.79957   0.80546   0.81630   0.81983
 Alpha virt. eigenvalues --    0.82317   0.83623   0.85546   0.85984   0.86483
 Alpha virt. eigenvalues --    0.86995   0.87580   0.87704   0.92239   0.92342
 Alpha virt. eigenvalues --    0.93914   0.94235   0.94973   0.96642   0.97093
 Alpha virt. eigenvalues --    0.97171   0.97728   0.98537   0.98566   0.98834
 Alpha virt. eigenvalues --    0.99667   1.00494   1.01257   1.02398   1.03146
 Alpha virt. eigenvalues --    1.03398   1.03617   1.03751   1.05051   1.05534
 Alpha virt. eigenvalues --    1.06964   1.07259   1.08688   1.08761   1.10216
 Alpha virt. eigenvalues --    1.10288   1.11159   1.11947   1.13789   1.13868
 Alpha virt. eigenvalues --    1.15072   1.15245   1.16198   1.16523   1.18246
 Alpha virt. eigenvalues --    1.18929   1.19095   1.19579   1.20042   1.20688
 Alpha virt. eigenvalues --    1.21150   1.21174   1.21992   1.23600   1.24474
 Alpha virt. eigenvalues --    1.25066   1.25747   1.26304   1.26769   1.27512
 Alpha virt. eigenvalues --    1.27779   1.28106   1.28359   1.28721   1.28852
 Alpha virt. eigenvalues --    1.30040   1.31342   1.31672   1.31891   1.33144
 Alpha virt. eigenvalues --    1.34780   1.34881   1.35065   1.35089   1.35441
 Alpha virt. eigenvalues --    1.36183   1.36324   1.36610   1.36691   1.37932
 Alpha virt. eigenvalues --    1.38024   1.38940   1.39716   1.40070   1.40286
 Alpha virt. eigenvalues --    1.41184   1.42272   1.44753   1.48676   1.49853
 Alpha virt. eigenvalues --    1.50559   1.52104   1.52419   1.53652   1.58734
 Alpha virt. eigenvalues --    1.58788   1.61191   1.64098   1.67988   1.68825
 Alpha virt. eigenvalues --    1.69272   1.69827   1.70005   1.70676   1.70931
 Alpha virt. eigenvalues --    1.73539   1.74221   1.74401   1.74583   1.75328
 Alpha virt. eigenvalues --    1.76617   1.77115   1.78976   1.80946   1.81394
 Alpha virt. eigenvalues --    1.83002   1.83142   1.83300   1.83395   1.83527
 Alpha virt. eigenvalues --    1.84837   1.85487   1.88643   1.88801   1.89359
 Alpha virt. eigenvalues --    1.89938   1.90173   1.92000   1.92928   1.93540
 Alpha virt. eigenvalues --    1.94371   1.94743   1.95460   1.95610   1.96744
 Alpha virt. eigenvalues --    1.96784   1.97537   1.97542   1.97638   2.00966
 Alpha virt. eigenvalues --    2.01269   2.03354   2.03793   2.04466   2.05384
 Alpha virt. eigenvalues --    2.08553   2.09968   2.10400   2.12855   2.14251
 Alpha virt. eigenvalues --    2.15395   2.17316   2.18793   2.18910   2.20469
 Alpha virt. eigenvalues --    2.24117   2.25237   2.25301   2.25327   2.27645
 Alpha virt. eigenvalues --    2.28192   2.29031   2.29858   2.31008   2.31169
 Alpha virt. eigenvalues --    2.32774   2.32853   2.36461   2.36528   2.36561
 Alpha virt. eigenvalues --    2.36806   2.39496   2.40216   2.42998   2.43017
 Alpha virt. eigenvalues --    2.43045   2.43884   2.43995   2.44734   2.45362
 Alpha virt. eigenvalues --    2.45591   2.47002   2.47192   2.48972   2.49906
 Alpha virt. eigenvalues --    2.51680   2.51992   2.53922   2.54420   2.54548
 Alpha virt. eigenvalues --    2.56472   2.58346   2.59533   2.59809   2.60959
 Alpha virt. eigenvalues --    2.61209   2.62911   2.63636   2.63861   2.65815
 Alpha virt. eigenvalues --    2.67576   2.68703   2.69470   2.70579   2.71566
 Alpha virt. eigenvalues --    2.74817   2.75386   2.76192   2.77641   2.78626
 Alpha virt. eigenvalues --    2.80103   2.80634   2.83760   2.86131   2.86196
 Alpha virt. eigenvalues --    2.88712   2.92803   2.93674   2.96063   2.98818
 Alpha virt. eigenvalues --    3.00799   3.02311   3.04420   3.04467   3.07768
 Alpha virt. eigenvalues --    3.08362   3.10394   3.14978   3.20932   3.21958
 Alpha virt. eigenvalues --    3.23863   3.27298   3.28436   3.28841   3.31396
 Alpha virt. eigenvalues --    3.31594   3.40033   3.43280   3.43692   3.49451
 Alpha virt. eigenvalues --    3.59541   3.60886   3.77421   3.77713   3.93672
 Alpha virt. eigenvalues --    3.93740   4.09436   4.09490   4.20542   4.21317
 Alpha virt. eigenvalues --    4.25942   4.28512   4.28641   4.31117   4.33676
 Alpha virt. eigenvalues --    4.36101   4.36941   4.37651   4.42833   4.44290
 Alpha virt. eigenvalues --    4.46968   4.48314   4.49395   4.55684   4.57836
 Alpha virt. eigenvalues --    4.60686   4.68188   4.77024   4.85449   4.87109
 Alpha virt. eigenvalues --    5.04742   5.12753
          Condensed to atoms (all electrons):
              1          2          3          4          5          6
     1  N    7.456291   0.330575  -0.090602  -0.234545  -0.376236   0.089802
     2  C    0.330575   8.782939  -0.534511  -0.888850  -2.698066  -0.045833
     3  C   -0.090602  -0.534511   9.484164   0.638811  -0.122624   0.430949
     4  C   -0.234545  -0.888850   0.638811  10.961414   0.605591  -0.122677
     5  C   -0.376236  -2.698066  -0.122624   0.605591  10.961822   0.639057
     6  C    0.089802  -0.045833   0.430949  -0.122677   0.639057   9.484081
     7  C   -0.002749   0.691248  -0.045687  -2.697923  -0.889087  -0.534508
     8  N    0.004066  -0.002736   0.089819  -0.376226  -0.234561  -0.090621
     9  O   -0.076803   0.254790  -0.029061  -0.030084   0.033144   0.044038
    10  O   -0.004704   0.004239   0.044030   0.033125  -0.030068  -0.029052
    11  H    0.000135   0.007984   0.004013  -0.026188   0.046130   0.002385
    12  H    0.289932  -0.004994   0.002385   0.046131  -0.026193   0.004011
    13  C    0.027567  -0.085721  -0.130654  -0.231400   0.086952  -0.906144
    14  C   -0.000107  -0.176805  -0.116489   0.050806  -0.539502  -0.987960
    15  C    0.003045  -0.034673  -0.012436  -0.072908   0.013769  -0.252169
    16  H    0.000000  -0.000055  -0.000005   0.000073   0.000119   0.003117
    17  C    0.029306   0.309032   0.090416   0.039268  -0.303255  -0.698226
    18  H   -0.000002  -0.002198  -0.000153  -0.000517  -0.001693  -0.007176
    19  C    0.089045  -0.356818  -0.325038  -0.239447  -1.376970  -2.077240
    20  H    0.002809   0.023499   0.012476  -0.012501   0.030693  -0.034778
    21  C   -0.083338  -0.337699  -0.351705   0.193182   0.897760   1.243034
    22  S    0.000176   0.004743   0.000922  -0.015954   0.009467   0.000293
    23  N   -0.001480   0.023488   0.028353  -0.081594   0.029982  -0.102949
    24  N    0.000077   0.006535   0.002183  -0.007826   0.037029   0.053951
    25  C   -0.028294  -0.071236  -0.988056  -0.539448   0.050763  -0.116492
    26  C    0.014710   0.183853  -0.906040   0.086983  -0.231385  -0.130673
    27  C   -0.125332   0.002186   1.242974   0.897648   0.193011  -0.351668
    28  C    0.025811  -0.063307  -2.077288  -1.376917  -0.239580  -0.325054
    29  H    0.001327   0.000718  -0.034779   0.030684  -0.012500   0.012476
    30  C    0.057337   0.032192  -0.698197  -0.303203   0.039261   0.090411
    31  H    0.000038  -0.000063  -0.007176  -0.001693  -0.000517  -0.000153
    32  C    0.044428  -0.022150  -0.252211   0.013766  -0.072915  -0.012436
    33  H    0.000039   0.000044   0.003118   0.000119   0.000073  -0.000005
    34  S   -0.029689  -0.010221   0.000317   0.009471  -0.015953   0.000923
    35  N   -0.002810   0.009697   0.053952   0.037024  -0.007825   0.002183
    36  N    0.053233   0.055670  -0.102938   0.029976  -0.081590   0.028355
              7          8          9         10         11         12
     1  N   -0.002749   0.004066  -0.076803  -0.004704   0.000135   0.289932
     2  C    0.691248  -0.002736   0.254790   0.004239   0.007984  -0.004994
     3  C   -0.045687   0.089819  -0.029061   0.044030   0.004013   0.002385
     4  C   -2.697923  -0.376226  -0.030084   0.033125  -0.026188   0.046131
     5  C   -0.889087  -0.234561   0.033144  -0.030068   0.046130  -0.026193
     6  C   -0.534508  -0.090621   0.044038  -0.029052   0.002385   0.004011
     7  C    8.782991   0.330584   0.004235   0.254792  -0.004997   0.007984
     8  N    0.330584   7.456332  -0.004704  -0.076808   0.289944   0.000135
     9  O    0.004235  -0.004704   8.434976  -0.000029   0.000022  -0.001760
    10  O    0.254792  -0.076808  -0.000029   8.435006  -0.001761   0.000022
    11  H   -0.004997   0.289944   0.000022  -0.001761   0.354307   0.000000
    12  H    0.007984   0.000135  -0.001760   0.000022   0.000000   0.354303
    13  C    0.183837   0.014709  -0.000999   0.001133   0.013187   0.000156
    14  C   -0.071289  -0.028308  -0.000439   0.000367  -0.008412  -0.000021
    15  C   -0.022168   0.044431  -0.004913   0.000236   0.001238   0.000012
    16  H    0.000044   0.000039   0.000007   0.000000   0.000000   0.000000
    17  C    0.032215   0.057340  -0.126342   0.000581  -0.002202   0.000452
    18  H   -0.000063   0.000038   0.000237   0.000000   0.000000   0.000000
    19  C   -0.063489   0.025785  -0.059118   0.004078  -0.019282   0.002740
    20  H    0.000718   0.001327  -0.000048   0.000006   0.000003  -0.000005
    21  C    0.002010  -0.125350   0.086041   0.012419  -0.036125  -0.002226
    22  S   -0.010221  -0.029691  -0.000059  -0.000184  -0.002503   0.000000
    23  N    0.055681   0.053232   0.000620  -0.006640   0.032110  -0.000001
    24  N    0.009699  -0.002809  -0.000063  -0.000019   0.001217   0.000000
    25  C   -0.176790  -0.000106   0.000366  -0.000439  -0.000021  -0.008414
    26  C   -0.085747   0.027568   0.001131  -0.001001   0.000156   0.013192
    27  C   -0.337579  -0.083333   0.012411   0.086053  -0.002227  -0.036124
    28  C   -0.356617   0.089052   0.004076  -0.059147   0.002741  -0.019280
    29  H    0.023497   0.002809   0.000006  -0.000049  -0.000005   0.000003
    30  C    0.308966   0.029306   0.000581  -0.126357   0.000452  -0.002202
    31  H   -0.002198  -0.000002   0.000000   0.000237   0.000000   0.000000
    32  C   -0.034649   0.003045   0.000236  -0.004914   0.000012   0.001238
    33  H   -0.000055   0.000000   0.000000   0.000007   0.000000   0.000000
    34  S    0.004744   0.000176  -0.000184  -0.000059   0.000000  -0.002503
    35  N    0.006534   0.000077  -0.000019  -0.000063   0.000000   0.001217
    36  N    0.023488  -0.001480  -0.006640   0.000620  -0.000001   0.032116
             13         14         15         16         17         18
     1  N    0.027567  -0.000107   0.003045   0.000000   0.029306  -0.000002
     2  C   -0.085721  -0.176805  -0.034673  -0.000055   0.309032  -0.002198
     3  C   -0.130654  -0.116489  -0.012436  -0.000005   0.090416  -0.000153
     4  C   -0.231400   0.050806  -0.072908   0.000073   0.039268  -0.000517
     5  C    0.086952  -0.539502   0.013769   0.000119  -0.303255  -0.001693
     6  C   -0.906144  -0.987960  -0.252169   0.003117  -0.698226  -0.007176
     7  C    0.183837  -0.071289  -0.022168   0.000044   0.032215  -0.000063
     8  N    0.014709  -0.028308   0.044431   0.000039   0.057340   0.000038
     9  O   -0.000999  -0.000439  -0.004913   0.000007  -0.126342   0.000237
    10  O    0.001133   0.000367   0.000236   0.000000   0.000581   0.000000
    11  H    0.013187  -0.008412   0.001238   0.000000  -0.002202   0.000000
    12  H    0.000156  -0.000021   0.000012   0.000000   0.000452   0.000000
    13  C    8.505003  -1.487356  -1.567804   0.014790   1.434113  -0.004049
    14  C   -1.487356  11.544907  -1.912740   0.091172  -0.955456  -0.003932
    15  C   -1.567804  -1.912740  11.294640   0.223538   0.230728   0.012818
    16  H    0.014790   0.091172   0.223538   0.536707  -0.047580  -0.004069
    17  C    1.434113  -0.955456   0.230728  -0.047580   9.152170   0.335547
    18  H   -0.004049  -0.003932   0.012818  -0.004069   0.335547   0.543540
    19  C   -0.430933   3.267126  -1.108780   0.034875  -2.244961  -0.010999
    20  H    0.037566  -0.026511   0.023041  -0.000137   0.050223  -0.004690
    21  C    0.059034  -2.676777   0.404733   0.005504  -1.091105  -0.000544
    22  S    0.000182  -0.249215  -0.208851  -0.002306   0.037950   0.000530
    23  N   -0.086691   0.301758   0.000512  -0.001470  -0.089641   0.000411
    24  N    0.310094  -0.019878  -0.319149  -0.007945   0.079796  -0.000746
    25  C   -0.003158  -0.000129  -0.000061   0.000000   0.000128   0.000000
    26  C   -0.019067  -0.003158  -0.000144   0.000000  -0.000447  -0.000002
    27  C   -0.043044  -0.004356  -0.005188   0.000000   0.010955  -0.000010
    28  C   -0.045200  -0.005541  -0.001171   0.000000   0.000631   0.000000
    29  H    0.000089   0.000008   0.000004   0.000000  -0.000028   0.000000
    30  C   -0.000446   0.000128   0.000029   0.000000  -0.000075   0.000000
    31  H   -0.000002   0.000000   0.000000   0.000000   0.000000   0.000000
    32  C   -0.000144  -0.000061  -0.000001   0.000000   0.000029   0.000000
    33  H    0.000000   0.000000   0.000000   0.000000   0.000000   0.000000
    34  S   -0.000072  -0.000007   0.000000   0.000000   0.000148   0.000000
    35  N    0.000006   0.000000   0.000000   0.000000   0.000001   0.000000
    36  N    0.000923  -0.000005   0.000023   0.000000   0.001225   0.000000
             19         20         21         22         23         24
     1  N    0.089045   0.002809  -0.083338   0.000176  -0.001480   0.000077
     2  C   -0.356818   0.023499  -0.337699   0.004743   0.023488   0.006535
     3  C   -0.325038   0.012476  -0.351705   0.000922   0.028353   0.002183
     4  C   -0.239447  -0.012501   0.193182  -0.015954  -0.081594  -0.007826
     5  C   -1.376970   0.030693   0.897760   0.009467   0.029982   0.037029
     6  C   -2.077240  -0.034778   1.243034   0.000293  -0.102949   0.053951
     7  C   -0.063489   0.000718   0.002010  -0.010221   0.055681   0.009699
     8  N    0.025785   0.001327  -0.125350  -0.029691   0.053232  -0.002809
     9  O   -0.059118  -0.000048   0.086041  -0.000059   0.000620  -0.000063
    10  O    0.004078   0.000006   0.012419  -0.000184  -0.006640  -0.000019
    11  H   -0.019282   0.000003  -0.036125  -0.002503   0.032110   0.001217
    12  H    0.002740  -0.000005  -0.002226   0.000000  -0.000001   0.000000
    13  C   -0.430933   0.037566   0.059034   0.000182  -0.086691   0.310094
    14  C    3.267126  -0.026511  -2.676777  -0.249215   0.301758  -0.019878
    15  C   -1.108780   0.023041   0.404733  -0.208851   0.000512  -0.319149
    16  H    0.034875  -0.000137   0.005504  -0.002306  -0.001470  -0.007945
    17  C   -2.244961   0.050223  -1.091105   0.037950  -0.089641   0.079796
    18  H   -0.010999  -0.004690  -0.000544   0.000530   0.000411  -0.000746
    19  C   14.336876   0.293600  -2.876840   0.010427   0.053998  -0.175382
    20  H    0.293600   0.506047  -0.088215   0.000436  -0.001803   0.000487
    21  C   -2.876840  -0.088215  10.383248  -0.050619  -0.093481   0.120862
    22  S    0.010427   0.000436  -0.050619  15.709358  -0.176408   0.030599
    23  N    0.053998  -0.001803  -0.093481  -0.176408   7.706896  -0.158529
    24  N   -0.175382   0.000487   0.120862   0.030599  -0.158529   7.409247
    25  C   -0.005541   0.000008  -0.004357  -0.000007  -0.000005   0.000000
    26  C   -0.045204   0.000089  -0.043048  -0.000072   0.000923   0.000006
    27  C   -0.045143  -0.001907   0.011807  -0.000112  -0.001652   0.000006
    28  C   -0.060059  -0.000482  -0.045164   0.000389   0.007480   0.000044
    29  H   -0.000482   0.000000  -0.001907  -0.000002   0.000023   0.000000
    30  C    0.000630  -0.000028   0.010952   0.000148   0.001225   0.000001
    31  H    0.000000   0.000000  -0.000010   0.000000   0.000000   0.000000
    32  C   -0.001171   0.000004  -0.005188   0.000000   0.000023   0.000000
    33  H    0.000000   0.000000   0.000000   0.000000   0.000000   0.000000
    34  S    0.000389  -0.000002  -0.000112   0.000001   0.000005   0.000000
    35  N    0.000044   0.000000   0.000006   0.000000   0.000000   0.000000
    36  N    0.007480   0.000023  -0.001652   0.000005  -0.000004   0.000000
             25         26         27         28         29         30
     1  N   -0.028294   0.014710  -0.125332   0.025811   0.001327   0.057337
     2  C   -0.071236   0.183853   0.002186  -0.063307   0.000718   0.032192
     3  C   -0.988056  -0.906040   1.242974  -2.077288  -0.034779  -0.698197
     4  C   -0.539448   0.086983   0.897648  -1.376917   0.030684  -0.303203
     5  C    0.050763  -0.231385   0.193011  -0.239580  -0.012500   0.039261
     6  C   -0.116492  -0.130673  -0.351668  -0.325054   0.012476   0.090411
     7  C   -0.176790  -0.085747  -0.337579  -0.356617   0.023497   0.308966
     8  N   -0.000106   0.027568  -0.083333   0.089052   0.002809   0.029306
     9  O    0.000366   0.001131   0.012411   0.004076   0.000006   0.000581
    10  O   -0.000439  -0.001001   0.086053  -0.059147  -0.000049  -0.126357
    11  H   -0.000021   0.000156  -0.002227   0.002741  -0.000005   0.000452
    12  H   -0.008414   0.013192  -0.036124  -0.019280   0.000003  -0.002202
    13  C   -0.003158  -0.019067  -0.043044  -0.045200   0.000089  -0.000446
    14  C   -0.000129  -0.003158  -0.004356  -0.005541   0.000008   0.000128
    15  C   -0.000061  -0.000144  -0.005188  -0.001171   0.000004   0.000029
    16  H    0.000000   0.000000   0.000000   0.000000   0.000000   0.000000
    17  C    0.000128  -0.000447   0.010955   0.000631  -0.000028  -0.000075
    18  H    0.000000  -0.000002  -0.000010   0.000000   0.000000   0.000000
    19  C   -0.005541  -0.045204  -0.045143  -0.060059  -0.000482   0.000630
    20  H    0.000008   0.000089  -0.001907  -0.000482   0.000000  -0.000028
    21  C   -0.004357  -0.043048   0.011807  -0.045164  -0.001907   0.010952
    22  S   -0.000007  -0.000072  -0.000112   0.000389  -0.000002   0.000148
    23  N   -0.000005   0.000923  -0.001652   0.007480   0.000023   0.001225
    24  N    0.000000   0.000006   0.000006   0.000044   0.000000   0.000001
    25  C   11.545015  -1.487613  -2.676790   3.267159  -0.026509  -0.955486
    26  C   -1.487613   8.505078   0.059124  -0.430992   0.037569   1.434085
    27  C   -2.676790   0.059124  10.383082  -2.876844  -0.088228  -1.091122
    28  C    3.267159  -0.430992  -2.876844  14.336729   0.293614  -2.244914
    29  H   -0.026509   0.037569  -0.088228   0.293614   0.506047   0.050231
    30  C   -0.955486   1.434085  -1.091122  -2.244914   0.050231   9.152185
    31  H   -0.003935  -0.004050  -0.000542  -0.010994  -0.004690   0.335542
    32  C   -1.912408  -1.567789   0.404686  -1.108841   0.023039   0.230775
    33  H    0.091166   0.014794   0.005507   0.034870  -0.000137  -0.047581
    34  S   -0.249295   0.000213  -0.050588   0.010404   0.000436   0.037947
    35  N   -0.019857   0.310050   0.120857  -0.175369   0.000487   0.079793
    36  N    0.301768  -0.086699  -0.093459   0.053985  -0.001804  -0.089632
             31         32         33         34         35         36
     1  N    0.000038   0.044428   0.000039  -0.029689  -0.002810   0.053233
     2  C   -0.000063  -0.022150   0.000044  -0.010221   0.009697   0.055670
     3  C   -0.007176  -0.252211   0.003118   0.000317   0.053952  -0.102938
     4  C   -0.001693   0.013766   0.000119   0.009471   0.037024   0.029976
     5  C   -0.000517  -0.072915   0.000073  -0.015953  -0.007825  -0.081590
     6  C   -0.000153  -0.012436  -0.000005   0.000923   0.002183   0.028355
     7  C   -0.002198  -0.034649  -0.000055   0.004744   0.006534   0.023488
     8  N   -0.000002   0.003045   0.000000   0.000176   0.000077  -0.001480
     9  O    0.000000   0.000236   0.000000  -0.000184  -0.000019  -0.006640
    10  O    0.000237  -0.004914   0.000007  -0.000059  -0.000063   0.000620
    11  H    0.000000   0.000012   0.000000   0.000000   0.000000  -0.000001
    12  H    0.000000   0.001238   0.000000  -0.002503   0.001217   0.032116
    13  C   -0.000002  -0.000144   0.000000  -0.000072   0.000006   0.000923
    14  C    0.000000  -0.000061   0.000000  -0.000007   0.000000  -0.000005
    15  C    0.000000  -0.000001   0.000000   0.000000   0.000000   0.000023
    16  H    0.000000   0.000000   0.000000   0.000000   0.000000   0.000000
    17  C    0.000000   0.000029   0.000000   0.000148   0.000001   0.001225
    18  H    0.000000   0.000000   0.000000   0.000000   0.000000   0.000000
    19  C    0.000000  -0.001171   0.000000   0.000389   0.000044   0.007480
    20  H    0.000000   0.000004   0.000000  -0.000002   0.000000   0.000023
    21  C   -0.000010  -0.005188   0.000000  -0.000112   0.000006  -0.001652
    22  S    0.000000   0.000000   0.000000   0.000001   0.000000   0.000005
    23  N    0.000000   0.000023   0.000000   0.000005   0.000000  -0.000004
    24  N    0.000000   0.000000   0.000000   0.000000   0.000000   0.000000
    25  C   -0.003935  -1.912408   0.091166  -0.249295  -0.019857   0.301768
    26  C   -0.004050  -1.567789   0.014794   0.000213   0.310050  -0.086699
    27  C   -0.000542   0.404686   0.005507  -0.050588   0.120857  -0.093459
    28  C   -0.010994  -1.108841   0.034870   0.010404  -0.175369   0.053985
    29  H   -0.004690   0.023039  -0.000137   0.000436   0.000487  -0.001804
    30  C    0.335542   0.230775  -0.047581   0.037947   0.079793  -0.089632
    31  H    0.543538   0.012819  -0.004068   0.000530  -0.000746   0.000411
    32  C    0.012819  11.294301   0.223543  -0.208810  -0.319134   0.000494
    33  H   -0.004068   0.223543   0.536706  -0.002306  -0.007946  -0.001470
    34  S    0.000530  -0.208810  -0.002306  15.709332   0.030622  -0.176399
    35  N   -0.000746  -0.319134  -0.007946   0.030622   7.409227  -0.158518
    36  N    0.000411   0.000494  -0.001470  -0.176399  -0.158518   7.706882
 Mulliken atomic charges:
              1
     1  N   -0.463057
     2  C    0.612505
     3  C    0.696768
     4  C   -0.414168
     5  C   -0.414103
     6  C    0.696750
     7  C    0.612547
     8  N   -0.463076
     9  O   -0.535651
    10  O   -0.535656
    11  H    0.347686
    12  H    0.347694
    13  C    0.353543
    14  C    0.018183
    15  C   -0.729644
    16  H    0.153582
    17  C   -0.332932
    18  H    0.147721
    19  C   -0.604198
    20  H    0.188054
    21  C    0.484870
    22  S    0.940576
    23  N   -0.494371
    24  N   -0.369488
    25  C    0.018074
    26  C    0.353609
    27  C    0.484938
    28  C   -0.604223
    29  H    0.188053
    30  C   -0.332935
    31  H    0.147722
    32  C   -0.729620
    33  H    0.153583
    34  S    0.940540
    35  N   -0.369491
    36  N   -0.494386
 Sum of Mulliken atomic charges =   0.00000
 Mulliken charges with hydrogens summed into heavy atoms:
              1
     1  N   -0.115363
     2  C    0.612505
     3  C    0.696768
     4  C   -0.414168
     5  C   -0.414103
     6  C    0.696750
     7  C    0.612547
     8  N   -0.115390
     9  O   -0.535651
    10  O   -0.535656
    13  C    0.353543
    14  C    0.018183
    15  C   -0.576062
    17  C   -0.185212
    19  C   -0.416144
    21  C    0.484870
    22  S    0.940576
    23  N   -0.494371
    24  N   -0.369488
    25  C    0.018074
    26  C    0.353609
    27  C    0.484938
    28  C   -0.416170
    30  C   -0.185213
    32  C   -0.576037
    34  S    0.940540
    35  N   -0.369491
    36  N   -0.494386
 Sum of Mulliken charges with hydrogens summed into heavy atoms =   0.00000
 Electronic spatial extent (au):  <R**2>=          15765.9431
 Charge=              0.0000 electrons
 Dipole moment (field-independent basis, Debye):
    X=             -0.0001    Y=             -0.0003    Z=              0.0003  Tot=              0.0004
 Quadrupole moment (field-independent basis, Debye-Ang):
   XX=           -152.7501   YY=           -175.2358   ZZ=           -174.3088
   XY=              4.7377   XZ=              0.0004   YZ=             -0.0002
 Traceless Quadrupole moment (field-independent basis, Debye-Ang):
   XX=             14.6815   YY=             -7.8042   ZZ=             -6.8773
   XY=              4.7377   XZ=              0.0004   YZ=             -0.0002
 Octapole moment (field-independent basis, Debye-Ang**2):
  XXX=             -0.0051  YYY=             -0.0048  ZZZ=             -0.0006  XYY=              0.0007
  XXY=              0.0013  XXZ=              0.0000  XZZ=              0.0005  YZZ=             -0.0004
  YYZ=              0.0050  XYZ=              0.0020
 Hexadecapole moment (field-independent basis, Debye-Ang**3):
 XXXX=         -19124.6925 YYYY=          -3091.0683 ZZZZ=           -194.7420 XXXY=            -60.5224
 XXXZ=             -0.0373 YYYX=             53.6082 YYYZ=              0.0130 ZZZX=             -0.0506
 ZZZY=              0.0163 XXYY=          -2975.8758 XXZZ=          -3191.6192 YYZZ=           -561.6495
 XXYZ=              0.0001 YYXZ=             -0.0167 ZZXY=            -67.9599
 N-N= 2.629174824117D+03 E-N=-9.867693385570D+03  KE= 1.952622024348D+03
 Calling FoFJK, ICntrl=      2127 FMM=F ISym2X=0 I1Cent= 0 IOpClX= 0 NMat=1 NMatS=1 NMatT=0.
 ***** Axes restored to original set *****
 -------------------------------------------------------------------
 Center     Atomic                   Forces (Hartrees/Bohr)
 Number     Number              X              Y              Z
 -------------------------------------------------------------------
      1        7           0.000002451   -0.000004501   -0.000000175
      2        6          -0.000002843   -0.000004888   -0.000000702
      3        6          -0.000008127    0.000008488   -0.000001619
      4        6           0.000033813   -0.000016631    0.000001533
      5        6          -0.000018350    0.000014069   -0.000001433
      6        6           0.000012799    0.000015161    0.000000283
      7        6          -0.000016033    0.000003174    0.000001694
      8        7           0.000016800   -0.000016012   -0.000001681
      9        8           0.000001762   -0.000002041    0.000000727
     10        8           0.000001199    0.000000099   -0.000001264
     11        1          -0.000014113    0.000005003    0.000001604
     12        1           0.000000288   -0.000002466    0.000000574
     13        6           0.000009701    0.000004687    0.000003048
     14        6          -0.000015003   -0.000013785    0.000001207
     15        6           0.000005204    0.000016660   -0.000001926
     16        1          -0.000000224   -0.000000016    0.000001877
     17        6          -0.000007584    0.000002159    0.000000286
     18        1           0.000002561    0.000001983   -0.000001504
     19        6           0.000008642    0.000000767    0.000001719
     20        1           0.000000134    0.000000267    0.000000324
     21        6          -0.000017047   -0.000002652   -0.000002253
     22       16          -0.000006968   -0.000008903    0.000000715
     23        7           0.000004706    0.000006687   -0.000001990
     24        7           0.000011664    0.000018652   -0.000001642
[...]
 0.00000013,-0.00000043,-0.00000201,0.00000009,-0.00000005,0.00000090,-
 0.00000188,-0.00000111,0.00000086,0.00000016,0.00000025,0.00000257,0.0
 0000173,0.00000062,-0.00000269,0.00000014,0.00000068,0.00000432,-0.000
 00003,0.00000025,-0.00000775,0.00000007,-0.00000013,-0.00000263,-0.000
 00078,0.00000102,0.00883407,0.00000226,0.00000003,-0.00018635,0.000000
 49,0.00000022,0.00470530,0.00000043,0.00000167,0.00284935,-0.00000012,
 0.00000012,-0.00264637,-0.00000101,-0.00000441,-0.03896158,0.00000012,
 0.00000289,0.02634075,0.00152326,-0.00092405,0.00000040,-0.00164888,-0
 .00081521,0.00000121,-0.00666683,0.00074117,0.00000073,0.00175820,-0.0
 0082330,-0.00001590,-0.00153259,0.00107562,-0.00001410,0.00103637,0.00
 094308,-0.00000054,0.00024192,0.00168892,0.00000564,0.00048064,-0.0003
 8570,0.00000084,0.00033683,0.00046659,0.00000596,0.00039927,-0.0012918
 7,0.00000483,0.00008117,0.00004707,0.00000105,-0.00008880,0.00012291,0
 .00000144,0.00012930,0.00017404,-0.00001184,-0.00007731,0.00014751,0.0
 0002562,-0.00004488,0.00007006,-0.00001103,-0.00000198,-0.00000969,-0.
 00000913,-0.00011665,-0.00010866,0.00000183,-0.00001484,0.00002104,-0.
 00000386,-0.00000005,-0.00022257,0.00000116,-0.00005584,-0.00004754,-0
 .00000083,-0.00021836,0.00035311,0.00002140,0.00005958,-0.00005975,-0.
 00000541,-0.00003705,-0.00012699,0.00002180,-0.00009441,0.00004592,-0.
 00002658,-0.10721924,0.04866900,0.00001546,0.01681716,0.02985968,-0.00
 000739,-0.00243003,-0.02284301,0.00001663,-0.05749061,0.01582357,-0.00
 000079,-0.00287023,0.00349402,0.00000386,-0.32896676,-0.14274070,-0.00
 000573,0.00408723,0.00183044,0.00000065,0.77785745,0.00048066,-0.00047
 991,-0.00000010,-0.00057626,-0.00027447,-0.00000009,-0.00434629,0.0003
 5596,-0.00000619,0.00076497,0.00002875,0.00000382,-0.00007068,0.000422
 09,0.00000730,0.00034423,-0.00000010,-0.00000459,-0.00035138,0.0010926
 7,0.00000220,0.00010221,-0.00012088,-0.00000004,0.00004234,0.00013756,
 -0.00000255,0.00117907,-0.00023895,-0.00000239,-0.00004655,-0.00001079
 ,-0.00000033,0.00032911,0.00011745,-0.00000031,0.00002405,0.00003522,-
 0.00000061,0.00002080,-0.00004212,-0.00000565,0.00007302,0.00003430,0.
 00000290,0.00000105,0.00000348,0.00000492,-0.00012229,0.00003341,-0.00
 000086,0.00000261,-0.00000559,0.00000175,0.00011350,-0.00013162,-0.000
 00131,0.00001379,0.00000955,0.00000015,-0.00022137,0.00008558,-0.00000
 478,-0.00001423,0.00002838,0.00000516,0.00000282,-0.00002626,-0.000013
 44,0.00002997,-0.00002050,0.00001233,0.03385294,-0.27927862,-0.0000054
 5,0.03426258,-0.00791243,0.00000216,-0.01028673,-0.03045917,-0.0000077
 7,-0.01749143,0.04937643,0.00000506,0.00277627,-0.00178719,-0.00000267
 ,-0.09037304,-0.19643693,-0.00000272,-0.02899358,-0.01118261,-0.000000
 97,-0.01008050,0.64498947,-0.00000228,0.00000030,-0.00000585,0.0000061
 5,-0.00000295,-0.00002519,0.00000322,0.00000347,-0.00103908,0.00000345
 ,0.00000499,0.00012753,-0.00000942,0.00000121,0.00053818,0.00000012,0.
 00000047,-0.00012865,-0.00000094,-0.00000342,-0.00011610,-0.00000024,-
 0.00000014,-0.00004910,0.00000073,0.00000121,-0.00002905,0.00000106,-0
 .00000218,0.00003174,0.00000069,0.00000117,-0.00000096,0.00000041,0.00
 000064,0.00000441,-0.00000207,-0.00000086,0.00002775,0.00000503,-0.000
 00064,0.00003089,-0.00000084,0.00000187,-0.00004478,-0.00000052,0.0000
 0003,0.00000291,0.00000051,0.00000156,0.00008400,-0.00000028,0.0000006
 9,0.00000175,0.00000685,0.00000313,-0.00018087,-0.00000109,-0.00000144
 ,0.00000375,-0.00000623,-0.00000233,0.00000240,-0.00000020,-0.00000271
 ,-0.00001747,-0.00000012,-0.00000081,0.00002858,-0.00000104,0.00000005
 ,-0.00000018,0.00000387,-0.00000501,-0.05698755,-0.00000881,0.00000076
 ,-0.00031144,-0.00000140,-0.00000115,0.00122241,-0.00000185,-0.0000052
 5,0.00515178,0.00000027,-0.00000075,0.00462499,-0.00000138,0.00000370,
 -0.05690633,0.00000066,-0.00000002,0.00453550,0.00000376,0.00000642,0.
 12619394,-0.00007511,0.00004759,-0.00000013,0.00008605,-0.00000511,-0.
 00000033,0.00002568,0.00003991,0.00000291,0.00001833,0.00003034,0.0000
 0405,0.00003831,-0.00002842,0.00000106,-0.00001553,-0.00004775,0.00000
 230,0.00013586,-0.00024773,-0.00000330,-0.00008896,0.00005285,-0.00000
 025,-0.00003449,0.00002899,-0.00000083,-0.00027900,0.00010038,-0.00000
 048,0.00001071,0.00000541,-0.00000017,0.00000990,-0.00000714,-0.000000
 38,0.00000215,-0.00000021,0.00000470,-0.00000392,-0.00000021,-0.000006
 52,-0.00000130,0.00000104,0.00000271,-0.00000029,0.00000018,0.00000077
 ,-0.00000141,-0.00000340,-0.00000016,0.00000044,0.00000078,0.00000049,
 -0.00000414,-0.00000112,0.00000045,0.00000545,-0.00000008,0.00000021,0
 .00001052,0.00000373,-0.00000545,0.00000228,-0.00000224,-0.00000058,-0
 .00000309,0.00000069,-0.00000108,-0.00000664,0.00000561,0.00000334,0.0
 0333357,-0.00167137,-0.00000348,0.00061614,-0.00085181,0.00000190,0.00
 020547,-0.00042333,-0.00000262,-0.00235137,-0.00388755,-0.00000237,-0.
 00057689,0.00085897,-0.00000006,-0.01672050,0.01454434,0.00000085,0.00
 098230,-0.00007316,0.00000007,-0.28299147,0.12077147,-0.00000107,0.296
 68831,0.00007505,0.00007335,0.00000011,-0.00010323,-0.00004266,0.00000
 031,-0.00001256,0.00004744,-0.00000344,0.00008432,-0.00007146,-0.00000
 314,-0.00003792,0.00006871,0.00000006,0.00001849,0.00003626,-0.0000026
 6,0.00008818,-0.00000848,0.00000317,0.00000693,0.00001793,0.00000025,0
 .00002435,0.00004634,0.00000039,-0.00010268,-0.00005055,0.00000015,0.0
 0001057,0.00000593,0.00000009,-0.00015191,-0.00001652,0.00000030,0.000
 00512,0.00000575,-0.00000422,-0.00000409,0.00001346,0.00000497,-0.0000
 0941,0.00000402,-0.00000201,-0.00000030,-0.00000118,-0.00000004,0.0000
 0112,-0.00000872,-0.00000003,-0.00000150,0.00000214,-0.00000021,-0.000
 00235,-0.00000307,-0.00000056,-0.00000567,-0.00000481,-0.00000017,0.00
 000177,0.00001691,0.00000434,0.00000495,-0.00000894,0.00000119,-0.0000
 0197,-0.00000725,-0.00000082,-0.00000967,0.00000620,-0.00000136,0.0291
 9082,-0.01025542,0.00000277,-0.00281624,-0.00364586,-0.00000165,-0.000
 32078,-0.00067879,0.00000146,-0.00308354,-0.00141304,0.00000245,-0.000
 62790,0.00051656,-0.00000028,-0.01542112,0.01268618,-0.00000095,0.0004
 1386,0.00085712,0.,0.12053558,-0.12328051,0.00000062,-0.12932923,0.124
 03448,-0.00000094,-0.00000153,0.00003017,0.00000394,0.00000254,0.00007
 459,0.00000387,0.00000343,-0.00116903,0.00000214,0.00000114,-0.0000655
 3,-0.00000116,-0.00000176,-0.00000862,-0.00000463,-0.00000093,-0.00000
 821,0.00000075,-0.00000171,0.00005000,-0.00000027,-0.00000006,0.000112
 78,0.00000010,0.00000120,-0.00000526,0.00000030,0.,-0.00007209,0.00000
 020,0.00000001,0.00001507,-0.00000066,-0.00000005,0.00000712,-0.000001
 29,-0.00000302,0.00000059,-0.00000020,-0.00000031,0.00000779,-0.000000
 76,0.00000066,-0.00000278,-0.00000003,-0.00000048,-0.00000206,0.000001
 27,0.00000130,0.00000677,-0.00000039,-0.00000039,0.00000014,0.00000495
 ,0.00000539,-0.00000123,0.00000022,0.00000011,-0.00000426,-0.00000482,
 -0.00000264,-0.00002846,-0.00000026,-0.00000151,0.00000233,0.00000040,
 -0.00000070,-0.00000203,0.00000087,0.00000094,-0.00000585,-0.00000038,
 -0.00000336,0.00384925,-0.00000429,0.00000060,0.00430512,-0.00000394,-
 0.00000145,-0.00090064,-0.00000285,-0.00000349,0.00854464,0.00000040,0
 .00000015,-0.00019400,0.00000397,0.00000564,0.00474026,0.00000065,-0.0
 0000005,-0.00516810,-0.00000327,0.00000099,-0.03543438,0.00000136,-0.0
 0000031,0.02361578,0.00194295,0.00195079,0.00000029,-0.00150347,-0.000
 26205,0.00000078,-0.00270262,-0.00328462,0.00000108,0.00232461,0.00118
 579,-0.00000787,0.00012208,0.00111881,-0.00000826,0.00023869,-0.000008
 13,0.,0.00035481,-0.00202225,0.00000181,-0.00012033,0.00036744,0.00000
 070,0.00038956,0.00054146,0.00000321,-0.00083464,0.00118784,0.00000293
 ,-0.00002564,-0.00002697,0.00000050,-0.00493133,-0.00066416,0.00000065
 ,0.00000438,0.00001531,-0.00000516,0.00003534,-0.00004293,0.00001225,0
 .00006059,-0.00001445,-0.00000517,0.00000230,0.00000450,-0.00000512,-0
 .00004654,0.00006197,0.00000089,-0.00000895,-0.00000518,-0.00000216,0.
 00003480,-0.00011360,0.00000117,-0.00005930,-0.00000850,-0.00000046,-0
 .00021282,0.00010157,0.00001122,0.00001207,0.00007633,-0.00000322,-0.0
 0002254,-0.00000569,0.00001241,0.00004193,-0.00004772,-0.00001468,-0.0
 1883296,-0.00389403,0.00000832,-0.05846882,-0.07708213,-0.00000557,0.0
 1181294,0.00688913,0.00000920,0.00084903,-0.00705572,-0.00000088,0.000
 63293,-0.00005432,0.00000234,-0.00582382,0.00177145,-0.00000078,-0.000
 19325,-0.00022122,0.00000044,-0.00242346,0.00143741,-0.00000146,0.0001
 8454,0.00049018,-0.00000140,0.29878299,0.00267538,0.00072911,-0.000000
 29,-0.00135634,0.00021895,-0.00000151,-0.00149106,-0.00159859,0.000015
 67,0.00182015,-0.00014852,0.00001023,-0.00070348,0.00094606,-0.0000013
 6,0.00065295,0.00070168,0.00001304,0.00052664,-0.00056001,-0.00001261,
 0.00014978,-0.00007305,-0.00000130,0.00020171,0.00027711,-0.00000073,-
 0.00060169,0.00002544,-0.00000004,0.00011214,0.00003307,-0.00000029,-0
 .00321125,0.00075390,-0.00000097,0.00008399,0.00010285,0.00001642,-0.0
 0006233,0.00013342,-0.00001681,-0.00006039,0.00002601,0.00000598,-0.00
 000286,-0.00000644,-0.00000146,-0.00003445,-0.00009845,0.00000025,-0.0
 0000836,0.00002106,0.00000032,-0.00006274,-0.00012380,0.00000176,-0.00
 004140,-0.00003780,0.00000069,-0.00004457,0.00024905,-0.00001527,0.000
 07704,-0.00005617,-0.00000680,-0.00004663,-0.00007035,0.00000783,-0.00
 010427,0.00005022,0.00000139,-0.04599451,-0.11299711,-0.00001166,-0.03
 412084,-0.06889581,0.00000433,0.01322216,0.00414101,-0.00000230,0.0077
 9374,-0.01166019,-0.00001222,0.00045756,-0.00036250,0.00000196,-0.0157
 1355,-0.00337034,0.00000324,-0.00061807,-0.00008769,0.00000041,-0.0009
 2152,0.01863190,-0.00000162,0.00046156,-0.00039892,0.00000084,0.041028
 32,0.36032471,-0.00000162,0.00000067,0.00026643,0.00000319,-0.00000220
 ,0.00009159,0.00000091,0.00000170,-0.00060984,0.00000362,0.00000320,-0
 .00006008,-0.00000655,0.00000111,0.00005177,0.00000174,0.00000046,-0.0
 0000383,-0.00000152,-0.00000101,-0.00000686,-0.00000030,-0.00000010,-0
 .00003083,0.00000047,0.00000038,-0.00005056,0.00000062,-0.00000218,0.0
 0002735,0.00000036,0.00000074,0.00001307,0.00000033,0.00000035,-0.0004
 3731,-0.00000174,0.00000063,-0.00003141,0.00000456,-0.00000050,0.00002
 873,-0.00000028,0.00000159,-0.00001914,-0.00000019,0.00000010,0.000004
 10,-0.00000040,0.00000092,0.00002873,-0.00000009,0.00000050,0.00000596
 ,0.00000434,0.00000049,-0.00006203,-0.00000089,-0.00000116,0.00000833,
 -0.00000392,-0.00000069,0.00001540,-0.00000017,-0.00000175,0.00000276,
 -0.00000031,-0.00000068,0.00000256,-0.00000109,-0.00000026,0.00000220,
 0.00000273,-0.00000340,0.01119646,-0.00000774,-0.00000213,0.01085493,0
 .00000064,0.00000005,0.00812346,0.00000050,-0.00000416,0.00062614,0.00
 000048,-0.00000039,-0.00129964,-0.00000018,0.00000365,0.00086449,0.000
 00057,0.00000025,-0.00133460,-0.00000097,0.00000154,0.00820543,-0.0000
 0035,0.00000051,-0.00050999,0.00000226,0.00000036,0.05491550,-0.002183
 56,-0.00044617,-0.00000049,0.00164947,-0.00110465,-0.00000117,-0.00072
 865,-0.00034467,0.00000250,-0.00169487,-0.00023697,0.00001278,-0.00073
 178,-0.00070630,0.00000919,-0.00000163,0.00018419,0.00000277,0.0001496
 7,0.00165202,-0.00000580,-0.00013534,-0.00032051,-0.00000104,-0.000403
 86,0.00057110,-0.00000410,0.00039930,-0.00102759,-0.00000347,0.0000974
 9,0.00005618,-0.00000067,0.00245122,-0.00091894,-0.00000112,0.00001666
 ,0.00004275,0.00001079,-0.00006417,0.00009879,-0.00001979,-0.00009871,
 0.00003274,0.00000835,-0.00000618,-0.00000885,0.00000590,0.00002764,-0
 .00011638,-0.00000098,-0.00000249,0.00002106,0.00000269,-0.00005923,0.
 00005171,-0.00000054,0.00005048,-0.00002591,0.00000071,0.00016913,-0.0
 0001702,-0.00001777,0.00003950,-0.00010351,0.00000242,-0.00002465,-0.0
 0002476,-0.00001336,-0.00010760,0.00008098,0.00001838,-0.26249797,-0.1
 0111670,-0.00001551,-0.05805901,0.02531585,0.00000607,-0.00829732,-0.0
 0017782,-0.00001235,-0.00806089,0.01060454,-0.00000186,-0.00021007,-0.
 00006149,-0.00000231,0.01892813,0.00336719,0.00000202,0.00040258,0.000
 08830,-0.00000040,-0.00428299,-0.03126346,0.00000056,0.00058901,0.0000
 2618,0.00000194,-0.05295925,0.01526313,0.00000015,0.43516743,0.0019432
 9,0.00027111,0.00000030,-0.00126184,0.00089730,0.00000120,0.00062839,-
 0.00166011,-0.00000338,-0.00021631,0.00030390,-0.00001007,0.00093021,0
 .00015853,-0.00000819,-0.00051127,-0.00027813,-0.00000421,-0.00024273,
 0.00023010,0.00000557,0.00019647,0.00034371,0.00000102,0.00036020,-0.0
 0046445,0.00000338,0.00044783,0.00004037,0.00000266,-0.00010757,-0.000
 02856,0.00000068,-0.00232402,0.00039741,0.00000092,-0.00004057,-0.0000
 4436,-0.00000989,0.00004338,-0.00006297,0.00001688,0.00004425,-0.00001
 925,-0.00000643,0.00000645,0.00000488,-0.00000448,0.00001372,0.0000743
 6,0.00000107,0.00000132,-0.00001515,-0.00000216,0.00002485,0.00003340,
 0.00000086,-0.00005551,0.00001650,-0.00000064,-0.00001585,-0.00008212,
 0.00001461,-0.00005062,0.00005221,-0.00000086,0.00004126,0.00003015,0.
 00000949,0.00008584,-0.00005375,-0.00001445,-0.12466412,-0.16039615,0.
 00000927,-0.03658453,0.03355753,-0.00000544,-0.00750180,-0.00825999,0.
 00000849,-0.01077717,0.01276724,0.00000312,-0.00041971,0.00033978,0.00
 000159,0.02672998,-0.00306781,-0.00000124,-0.00119316,-0.00068413,0.00
 000026,-0.04678284,-0.05368343,-0.00000230,0.00018773,0.00315539,-0.00
 000162,0.09519164,-0.15547687,0.00000027,0.08477686,0.38227689,-0.0000
 1218,-0.00001153,-0.00013288,0.00004167,0.00001633,-0.00009899,0.00003
 509,0.00003290,0.00058191,0.00002813,0.00001787,-0.00015397,-0.0000256
 2,-0.00001198,0.00000359,-0.00003528,-0.00000751,-0.00011054,0.0000026
 8,-0.00001670,0.00006992,-0.00000309,-0.00000071,0.00001965,0.00000187
 ,0.00001125,0.00002617,0.00000403,-0.00000548,-0.00001372,0.00000242,0
 .00000177,-0.00000192,-0.00000470,0.00000032,0.00044869,-0.00001524,-0
 .00002420,-0.00004391,0.00000925,-0.00000442,0.00006637,-0.00000691,0.
 00000979,-0.00003086,-0.00000077,-0.00000384,-0.00000436,0.00000942,0.
 00001318,0.00001037,-0.00000358,-0.00000224,-0.00000587,0.00005297,0.0
 0004757,-0.00000885,-0.00000008,-0.00000186,-0.00000682,-0.00005091,-0
 .00002376,0.00006516,-0.00000299,-0.00001728,0.00000900,0.00000278,-0.
 00000753,0.00001075,0.00000488,0.00000738,-0.00002525,-0.00000021,-0.0
 0003583,-0.06089628,-0.00005407,0.00000381,0.01209104,-0.00003216,-0.0
 0001237,0.00338534,-0.00002208,-0.00003828,-0.00185915,0.00000488,0.00
 000036,0.00007409,0.00003747,0.00005542,0.00449801,0.00000635,-0.00000
 014,0.00094505,-0.00002507,0.00001109,-0.00267674,0.00000289,-0.000000
 94,-0.00233370,-0.00001293,-0.00000053,-0.04600401,0.00002110,-0.00000
 982,0.07154660,-0.01285072,0.00167852,-0.00000085,0.00184958,-0.002509
 38,-0.00000195,0.00530127,0.00431000,-0.00000411,-0.00294422,-0.001140
 09,0.00002362,-0.00039173,-0.00124467,0.00002422,-0.00034656,-0.000560
 42,-0.00000110,-0.00011585,0.00136766,-0.00000596,-0.00038906,-0.00020
 316,-0.00000162,-0.00042093,0.00025574,-0.00000963,0.00036068,-0.00069
 415,-0.00000827,0.00003871,0.00001109,-0.00000158,-0.00053234,-0.00177
 492,-0.00000207,-0.00003646,-0.00004574,0.00001559,-0.00000199,-0.0000
 1014,-0.00003738,-0.00003914,0.00000834,0.00001599,-0.00000359,-0.0000
 0038,0.00001531,0.00004516,-0.00003168,-0.00000292,0.00000892,0.000003
 83,0.00000635,-0.00000364,0.00013896,-0.00000292,0.00008985,0.00001142
 ,0.00000129,0.00022697,-0.00018008,-0.00003244,-0.00002346,-0.00005007
 ,0.00001001,0.00001467,0.00003105,-0.00003740,-0.00003104,0.00003609,0
 .00004368,0.01331929,0.00565857,-0.00002440,-0.09579584,-0.01197058,0.
 00001164,-0.00408864,-0.04143133,-0.00002741,-0.00969352,0.00516425,0.
 00000276,0.00039419,-0.00142908,-0.00000688,0.00568032,-0.00124472,0.0
 0000200,0.00036116,0.00010487,-0.00000122,-0.00553517,-0.00238701,0.00
 000390,0.00020909,0.00106460,0.00000419,-0.16865682,0.02067400,0.00000
 083,-0.05952752,0.02109596,0.00004001,0.33352837,-0.00152449,0.0039259
 3,0.00000006,0.00046289,-0.00031922,0.00000035,0.01054539,-0.00192138,
 -0.00000843,-0.00396720,-0.00053372,0.00000033,0.00128798,-0.00084722,
 0.00000542,-0.00134243,-0.00066616,-0.00000684,0.00041381,0.00166895,0
 .00000478,-0.00003681,0.00057632,0.00000039,0.00008219,0.00025373,-0.0
 0000165,0.00042359,-0.00082232,-0.00000177,-0.00000532,0.00001917,-0.0
 0000016,0.00079616,-0.00313938,-0.00000003,-0.00008042,-0.00004941,-0.
 00000457,-0.00001221,0.00006624,-0.00000003,-0.00012768,-0.00002031,0.
 00000082,0.00000010,-0.00000697,0.00000398,0.00018397,-0.00005819,-0.0
 0000066,-0.00000699,0.00001130,0.00000119,-0.00014373,0.00025398,-0.00
 000125,-0.00005087,-0.00002129,-0.00000008,0.00044349,-0.00020679,0.00
 000028,-0.00000704,-0.00007831,0.00000558,0.00003151,0.00004494,-0.000
 01184,-0.00002626,0.00003287,0.00000862,0.07223226,-0.03942787,0.00000
 026,0.00540712,-0.33843782,-0.00000191,-0.03267666,-0.04306506,-0.0000
 0560,-0.01274509,0.01883181,0.00000665,0.00009443,-0.00056435,-0.00000
 243,0.01616315,-0.00136837,-0.00000097,0.00019778,-0.00003996,-0.00000
 045,0.00207458,-0.01001015,0.00000128,-0.00056171,-0.00169797,0.000000
 43,-0.05860628,-0.03134297,0.00000113,-0.00421187,-0.05067354,0.000007
 91,0.00529266,0.49963351,0.00000521,0.00000265,0.00192223,-0.00001629,
 -0.00000166,0.00056838,-0.00001147,-0.00001180,-0.00143017,-0.00001149
 ,-0.00000926,-0.00000547,0.00001593,0.00000203,-0.00023410,0.00000810,
 0.00000135,0.00026257,0.00000066,0.00000642,-0.00000012,0.00000109,0.0
 0000043,-0.00012833,-0.00000115,-0.00000371,0.00011626,-0.00000196,0.0
 0000423,0.00005952,-0.00000117,-0.00000148,0.00001092,0.00000079,-0.00
 000065,-0.00280384,0.00000641,0.00000630,0.00000716,-0.00000835,0.0000
 0152,-0.00006317,0.00000266,-0.00000436,0.00004133,0.00000048,0.000000
 99,-0.00000563,-0.00000247,-0.00000484,-0.00005543,0.00000116,-0.00000
 003,-0.00000893,-0.00002027,-0.00001452,0.00012548,0.00000112,0.000001
 95,-0.00001419,0.00001934,0.00000786,-0.00012661,0.00000078,0.00000704
 ,0.00000270,-0.00000034,0.00000290,-0.00001120,0.00000006,-0.00000163,
 0.00001400,-0.00000472,0.00001206,0.01332156,0.00002312,-0.00000289,-0
 .06190770,0.00000858,0.00000296,-0.00300731,0.00000562,0.00001574,0.00
 408799,-0.00000185,0.00000045,0.00101430,-0.00001054,-0.00002027,-0.00
 198741,-0.00000253,-0.00000026,0.00000808,0.00000816,-0.00000497,0.003
 13578,-0.00000045,-0.00000033,0.00055382,0.00000268,0.00000303,-0.0448
 7528,-0.00000560,0.00000353,0.02055610,-0.00001130,-0.00000078,0.07085
 673\\-0.00000023,0.00000041,0.00000126,-0.00000169,-0.00000068,-0.0000
 0350,-0.00000028,0.00000167,-0.00000077,0.00000193,-0.00000167,0.00000
 102,-0.00000080,0.00000171,0.00000054,0.00000096,-0.00000129,0.0000009
 2,0.00000236,-0.00000091,-0.00000101,0.00000044,-0.00000058,-0.0000000
 2,-0.00000121,-0.00000003,0.00000121,0.00000125,0.00000075,0.00000043,
 -0.00000033,-0.00000092,-0.00000035,-0.00000096,0.00000119,0.00000011,
 0.00000085,-0.00000067,0.00000004,-0.00000063,-0.00000360,0.00000045,-
 0.00000122,-0.00000193,-0.00000002,-0.00000114,-0.00000321,0.00000021,
 -0.00000118,-0.00000215,0.00000009,-0.00000172,-0.00000206,-0.00000024
 ,-0.00000059,-0.00000083,0.00000032,-0.00000114,-0.00000126,-0.0000001
 7,-0.00000193,-0.00000209,0.00000017,0.00000111,-0.00000126,0.00000107
 ,0.00000054,-0.00000305,-0.00000079,0.00000036,-0.00000330,-0.00000110
 ,0.00000073,0.00000280,0.,0.00000028,0.00000237,0.00000002,-0.00000062
 ,0.00000130,0.00000020,0.00000084,0.00000162,0.00000020,0.00000108,0.0
 0000105,-0.00000019,0.00000120,0.00000214,-0.00000010,0.00000180,0.000
 00193,0.00000007,0.00000085,0.00000249,0.00000023,0.00000113,0.0000029
 3,-0.00000015,-0.00000129,0.00000244,0.00000013,0.00000007,0.00000246,
 -0.00000006,-0.00000081,0.00000221,-0.00000022\\\@


 COLLEGE PROFESSOR: SOMEONE WHO TALKS IN OTHER PEOPLE'S SLEEP.
 Job cpu time:  0 days  5 hours 32 minutes 21.7 seconds.
 File lengths (MBytes):  RWF=   1247 Int=      0 D2E=      0 Chk=     25 Scr=      1
 Normal termination of Gaussian 09 at Tue Sep  5 22:23:18 2023.
