 Entering Gaussian System, Link 0=g09
 Initial command:
 /apps/software//g09/l1.exe /scratch/nathalia.rosa/82522.cluster.abaxnet/Gau-20695.inp -scrdir=/scratch/nathalia.rosa/82522.cluster.abaxnet/
 Entering Link 1 = /apps/software//g09/l1.exe PID=     20696.
  
 Copyright (c) 1988,1990,1992,1993,1995,1998,2003,2009, Gaussian, Inc.
                  All Rights Reserved.
  
 This is part of the Gaussian(R) 09 program.  It is based on
 the Gaussian(R) 03 system (copyright 2003, Gaussian, Inc.),
 the Gaussian(R) 98 system (copyright 1998, Gaussian, Inc.),
 the Gaussian(R) 94 system (copyright 1995, Gaussian, Inc.),
 the Gaussian 92(TM) system (copyright 1992, Gaussian, Inc.),
 the Gaussian 90(TM) system (copyright 1990, Gaussian, Inc.),
 the Gaussian 88(TM) system (copyright 1988, Gaussian, Inc.),
 the Gaussian 86(TM) system (copyright 1986, Carnegie Mellon
 University), and the Gaussian 82(TM) system (copyright 1983,
 Carnegie Mellon University). Gaussian is a federally registered
 trademark of Gaussian, Inc.
  
 This software contains proprietary and confidential information,
 including trade secrets, belonging to Gaussian, Inc.
  
 This software is provided under written license and may be
 used, copied, transmitted, or stored only in accord with that
 written license.
  
 The following legend is applicable only to US Government
 contracts under FAR:
  
                    RESTRICTED RIGHTS LEGEND
  
 Use, reproduction and disclosure by the US Government is
 subject to restrictions as set forth in subparagraphs (a)
 and (c) of the Commercial Computer Software - Restricted
 Rights clause in FAR 52.227-19.
  
 Gaussian, Inc.
 340 Quinnipiac St., Bldg. 40, Wallingford CT 06492
  
  
 ---------------------------------------------------------------
 Warning -- This program may not be used in any manner that
 competes with the business of Gaussian, Inc. or will provide
 assistance to any competitor of Gaussian, Inc.  The licensee
 of this program is prohibited from giving any competitor of
 Gaussian, Inc. access to this program.  By using this program,
 the user acknowledges that Gaussian, Inc. is engaged in the
 business of creating and licensing software in the field of
 computational chemistry and represents and warrants to the
 licensee that it is not a competitor of Gaussian, Inc. and that
 it will not use this program in any manner prohibited above.
 ---------------------------------------------------------------
  

 Cite this work as:
 Gaussian 09, Revision A.02,
 M. J. Frisch, G. W. Trucks, H. B. Schlegel, G. E. Scuseria, 
 M. A. Robb, J. R. Cheeseman, G. Scalmani, V. Barone, B. Mennucci, 
 G. A. Petersson, H. Nakatsuji, M. Caricato, X. Li, H. P. Hratchian, 
 A. F. Izmaylov, J. Bloino, G. Zheng, J. L. Sonnenberg, M. Hada, 
 M. Ehara, K. Toyota, R. Fukuda, J. Hasegawa, M. Ishida, T. Nakajima, 
 Y. Honda, O. Kitao, H. Nakai, T. Vreven, J. A. Montgomery, Jr., 
 J. E. Peralta, F. Ogliaro, M. Bearpark, J. J. Heyd, E. Brothers, 
 K. N. Kudin, V. N. Staroverov, R. Kobayashi, J. Normand, 
 K. Raghavachari, A. Rendell, J. C. Burant, S. S. Iyengar, J. Tomasi, 
 M. Cossi, N. Rega, J. M. Millam, M. Klene, J. E. Knox, J. B. Cross, 
 V. Bakken, C. Adamo, J. Jaramillo, R. Gomperts, R. E. Stratmann, 
 O. Yazyev, A. J. Austin, R. Cammi, C. Pomelli, J. W. Ochterski, 
 R. L. Martin, K. Morokuma, V. G. Zakrzewski, G. A. Voth, 
 P. Salvador, J. J. Dannenberg, S. Dapprich, A. D. Daniels, 
 O. Farkas, J. B. Foresman, J. V. Ortiz, J. Cioslowski, 
 and D. J. Fox, Gaussian, Inc., Wallingford CT, 2009.
 
 ******************************************
 Gaussian 09:  EM64L-G09RevA.02 11-Jun-2009
                 6-Sep-2023 
 ******************************************
 %mem=4Gb
 %chk=/home/nathalia.rosa/DPP-SUB/DPP-SUB-6/DPP-SUB-6\DPP-SUB-6-TD-DFT.chk
 ---------------------------------------------------------
 # td=(nstates=10) cam-b3lyp/6-31+g(d,p) geom=connectivity
 ---------------------------------------------------------
 1/38=1,57=2/1;
 2/12=2,17=6,18=5,40=1/2;
 3/5=1,6=6,7=111,11=2,16=1,25=1,30=1,74=-40/1,2,8,3;
 4//1;
 5/5=2,38=5/2;
 8/6=1,10=2,108=10/1;
 9/41=10,42=1/14;
 6/7=2,8=2,9=2,10=2/1;
 99/5=1,9=1/99;
 -------
 Energy:
 -------
 Symbolic Z-matrix:
 Charge =  0 Multiplicity = 1
 N                    -1.6052   -1.39151   0.00003 
 C                    -0.24992  -1.79776   0.00001 
 C                    -1.75605  -0.01349   0.00001 
 C                    -0.47528   0.53182  -0.00001 
 C                     0.47527  -0.53182   0. 
 C                     1.75605   0.01349  -0.00001 
 C                     0.24992   1.79777  -0.00004 
 N                     1.60521   1.39151  -0.00004 
 O                     0.11645  -2.9711    0.00004 
 O                    -0.11645   2.97111  -0.00005 
 H                     2.38599   2.03852  -0.00006 
 H                    -2.38598  -2.03853   0.00004 
 C                     4.28958   0.1092   -0.00003 
 C                     5.56313  -0.58885  -0.00002 
 C                     5.61094  -2.01104   0.00001 
 H                     6.56949  -2.51765   0.00001 
 C                     4.41595  -2.69095   0.00002 
 H                     4.4142   -3.77643   0.00003 
 C                     3.15968  -2.02115   0.00001 
 H                     2.25084  -2.61792   0.00003 
 C                     3.05343  -0.63422  -0.00001 
 S                     6.03815   1.76399  -0.00006 
 N                     4.42189   1.44162  -0.00006 
 N                     6.62207   0.23273  -0.00004 
 C                    -5.56313   0.58885   0.00004 
 C                    -4.28958  -0.1092    0.00003 
 C                    -3.05343   0.63422   0.00001 
 C                    -3.15968   2.02114  0. 
 H                    -2.25084   2.61792  -0.00002 
 C                    -4.41595   2.69095   0.00001 
 H                    -4.4142    3.77643  0. 
 C                    -5.61094   2.01104   0.00002 
 H                    -6.56949   2.51766   0.00003 
 S                    -6.03815  -1.764     0.00006 
 N                    -6.62207  -0.23273   0.00005 
 N                    -4.42189  -1.44162   0.00004 
 
                          Input orientation:                          
 ---------------------------------------------------------------------
 Center     Atomic      Atomic             Coordinates (Angstroms)
 Number     Number       Type             X           Y           Z
 ---------------------------------------------------------------------
      1          7           0       -1.605204   -1.391513    0.000026
      2          6           0       -0.249917   -1.797763    0.000014
      3          6           0       -1.756051   -0.013494    0.000005
      4          6           0       -0.475275    0.531818   -0.000008
      5          6           0        0.475273   -0.531815    0.000000
      6          6           0        1.756051    0.013494   -0.000014
      7          6           0        0.249917    1.797766   -0.000037
      8          7           0        1.605206    1.391514   -0.000039
      9          8           0        0.116446   -2.971104    0.000039
     10          8           0       -0.116446    2.971106   -0.000050
     11          1           0        2.385990    2.038521   -0.000062
     12          1           0       -2.385980   -2.038528    0.000040
     13          6           0        4.289577    0.109197   -0.000030
     14          6           0        5.563126   -0.588845   -0.000022
     15          6           0        5.610937   -2.011041    0.000005
     16          1           0        6.569487   -2.517654    0.000014
     17          6           0        4.415952   -2.690946    0.000019
     18          1           0        4.414200   -3.776432    0.000034
     19          6           0        3.159684   -2.021145    0.000014
     20          1           0        2.250843   -2.617916    0.000025
     21          6           0        3.053434   -0.634223   -0.000010
     22         16           0        6.038154    1.763993   -0.000062
     23          7           0        4.421890    1.441622   -0.000057
     24          7           0        6.622069    0.232731   -0.000044
     25          6           0       -5.563127    0.588845    0.000035
     26          6           0       -4.289578   -0.109199    0.000028
     27          6           0       -3.053432    0.634223    0.000010
     28          6           0       -3.159683    2.021144   -0.000002
     29          1           0       -2.250843    2.617916   -0.000020
     30          6           0       -4.415951    2.690945    0.000005
     31          1           0       -4.414200    3.776431   -0.000004
     32          6           0       -5.610936    2.011041    0.000024
     33          1           0       -6.569485    2.517657    0.000026
     34         16           0       -6.038155   -1.763995    0.000060
     35          7           0       -6.622071   -0.232730    0.000053
     36          7           0       -4.421890   -1.441623    0.000040
 ---------------------------------------------------------------------
                    Distance matrix (angstroms):
                    1          2          3          4          5
     1  N    0.000000
     2  C    1.414865   0.000000
     3  C    1.386251   2.334964   0.000000
     4  C    2.230682   2.340456   1.392032   0.000000
     5  C    2.251103   1.458946   2.290734   1.426484   0.000000
     6  C    3.643087   2.702695   3.512206   2.290737   1.392032
     7  C    3.689576   3.630105   2.702697   1.458947   2.340456
     8  N    4.248761   3.689576   3.643089   2.251106   2.230682
     9  O    2.336490   1.229207   3.500529   3.552548   2.465540
    10  O    4.609647   4.770736   3.405311   2.465539   3.552547
    11  H    5.262581   4.654576   4.622474   3.233727   3.202728
    12  H    1.014021   2.149589   2.120748   3.202729   3.233721
    13  C    6.082810   4.923769   6.046873   4.783558   3.867792
    14  C    7.213129   5.937420   7.341756   6.141512   5.088173
    15  C    7.242686   5.864733   7.633001   6.596068   5.344451
    16  H    8.251895   6.857296   8.693986   7.676454   6.409602
    17  C    6.159776   4.750590   6.727731   5.857500   4.493417
    18  H    6.474648   5.066470   7.227150   6.516746   5.103203
    19  C    4.806308   3.416911   5.309907   4.441908   3.069880
    20  H    4.046377   2.631815   4.778934   4.165638   2.739428
    21  C    4.719788   3.502278   4.849376   3.716374   2.580194
    22  S    8.269108   7.226752   7.994316   6.628953   6.018005
    23  N    6.659768   5.685015   6.346993   4.980961   4.412509
    24  N    8.386071   7.165689   8.381737   7.103643   6.194161
    25  C    4.425717   5.824611   3.854431   5.088172   6.141511
    26  C    2.974927   4.378368   2.535334   3.867791   4.783556
    27  C    2.490175   3.711368   1.450081   2.580190   3.716370
    28  C    3.750018   4.801124   2.471828   3.069876   4.441903
    29  H    4.061080   4.847878   2.677525   2.739424   4.165635
    30  C    4.956487   6.124079   3.793291   4.493413   5.857496
    31  H    5.882015   6.957937   4.629178   5.103199   6.516742
    32  C    5.255784   6.576284   4.354180   5.344447   6.596064
    33  H    6.318678   7.652437   5.438370   6.409598   7.676451
    34  S    4.448573   5.788336   4.626086   6.018006   6.628953
    35  N    5.148955   6.561530   4.870956   6.194161   7.103643
    36  N    2.817132   4.187146   3.024277   4.412509   4.980959
                    6          7          8          9         10
     6  C    0.000000
     7  C    2.334966   0.000000
     8  N    1.386252   1.414867   0.000000
     9  O    3.405309   4.770737   4.609647   0.000000
    10  O    3.500530   1.229206   2.336492   5.946772   0.000000
    11  H    2.120745   2.149598   1.014023   5.499743   2.670562
    12  H    4.622469   4.654579   5.262581   2.670549   5.499747
    13  C    2.535333   4.378369   2.974926   5.186837   5.253909
    14  C    3.854430   5.824612   4.425715   5.944870   6.703043
    15  C    4.354181   6.576287   5.255784   5.577737   7.591094
    16  H    5.438371   7.652438   6.318677   6.468953   8.650329
    17  C    3.793293   6.124082   4.956488   4.308624   7.252687
    18  H    4.629179   6.957941   5.882016   4.372556   8.127486
    19  C    2.471830   4.801127   3.750019   3.188059   5.971231
    20  H    2.677525   4.847881   4.061081   2.163421   6.069697
    21  C    1.450083   3.711371   2.490176   3.753253   4.800681
    22  S    4.626084   5.788336   4.448569   7.582069   6.271860
    23  N    3.024276   4.187147   2.817130   6.165144   4.789135
    24  N    4.870954   6.561528   5.148951   7.251737   7.273670
    25  C    7.341757   5.937421   7.213132   6.703043   5.944872
    26  C    6.046874   4.923772   6.082813   5.253908   5.186840
    27  C    4.849374   3.502277   4.719788   4.800678   3.753253
    28  C    5.309906   3.416909   4.806308   5.971228   3.188059
    29  H    4.778934   2.631814   4.046378   6.069695   2.163422
    30  C    6.727730   4.750589   6.159777   7.252684   4.308623
    31  H    7.227150   5.066468   6.474649   8.127483   4.372555
    32  C    7.633000   5.864732   7.242687   7.591092   5.577737
    33  H    8.693985   6.857294   8.251895   8.650328   6.468951
    34  S    7.994318   7.226755   8.269111   6.271860   7.582072
    35  N    8.381739   7.165691   8.386075   7.273672   7.251739
    36  N    6.346993   5.685017   6.659771   4.789134   6.165146
                   11         12         13         14         15
    11  H    0.000000
    12  H    6.276466   0.000000
    13  C    2.710338   7.012545   0.000000
    14  C    4.122772   8.080215   1.452305   0.000000
    15  C    5.176798   7.996964   2.498280   1.422999   0.000000
    16  H    6.185497   8.968275   3.478266   2.175561   1.084193
    17  C    5.146708   6.833149   2.802993   2.394752   1.374867
    18  H    6.158516   7.018743   3.887627   3.388324   2.132788
    19  C    4.132734   5.545691   2.411434   2.797859   2.451274
    20  H    4.658398   4.672881   3.404935   3.884372   3.414459
    21  C    2.754822   5.617766   1.442471   2.510102   2.904557
    22  S    3.662467   9.242575   2.407462   2.400312   3.799131
    23  N    2.121598   7.645818   1.338978   2.329209   3.651673
    24  N    4.604915   9.289971   2.335761   1.340279   2.461077
    25  C    8.080224   4.122784   9.864372  11.188407  11.472537
    26  C    7.012554   2.710350   8.581934   9.864372  10.081528
    27  C    5.617772   2.754830   7.361755   8.702929   9.059178
    28  C    5.545700   4.132742   7.690710   9.104913   9.653097
    29  H    4.672892   4.658405   7.005053   8.446385   9.123312
    30  C    6.833159   5.146717   9.080289  10.504237  11.074618
    31  H    7.018755   6.158525   9.444805  10.890485  11.575759
    32  C    7.996973   5.176809  10.081526  11.472535  11.920888
    33  H    8.968283   6.185510  11.122945  12.524001  12.995068
    34  S    9.242583   3.662479  10.496232  11.660647  11.651711
    35  N    9.289981   4.604929  10.917004  12.190400  12.361589
    36  N    7.645825   2.121609   8.848429  10.021366  10.048973
                   16         17         18         19         20
    16  H    0.000000
    17  C    2.160496   0.000000
    18  H    2.495954   1.085487   0.000000
    19  C    3.445762   1.423672   2.157508   0.000000
    20  H    4.319808   2.166340   2.454032   1.087257   0.000000
    21  C    3.988727   2.467096   3.424202   1.390986   2.139904
    22  S    4.314489   4.741099   5.773520   4.755298   5.791792
    23  N    4.504225   4.132572   5.218060   3.685637   4.603617
    24  N    2.750888   3.662627   4.576907   4.131352   5.218602
    25  C   12.524003  10.504239  10.890487   9.104915   8.446386
    26  C   11.122947   9.080290   9.444805   7.690711   7.005053
    27  C   10.125952   8.176090   8.672912   6.756759   6.221876
    28  C   10.735802   8.921549   9.538113   7.501633   7.127038
    29  H   10.206483   8.522334   9.236367   7.127039   6.905006
    30  C   12.157687  10.342498  10.945252   8.921549   8.522332
    31  H   12.659261  10.945252  11.618364   9.538113   9.236367
    32  C   12.995068  11.074618  11.575759   9.653098   9.123311
    33  H   14.070783  12.157688  12.659261  10.735802  10.206483
    34  S   12.630148  10.495122  10.644324   9.201433   8.332867
    35  N   13.387983  11.308438  11.591251   9.943901   9.187911
    36  N   11.043922   8.925708   9.139356   7.603691   6.775620
                   21         22         23         24         25
    21  C    0.000000
    22  S    3.828837   0.000000
    23  N    2.486323   1.648100   0.000000
    24  N    3.672433   1.638817   2.510419   0.000000
    25  C    8.702932  11.660647  10.021367  12.190399   0.000000
    26  C    7.361758  10.496232   8.848430  10.917003   1.452306
    27  C    6.237208   9.161513   7.518799   9.683828   2.510105
    28  C    6.756759   9.201431   7.603690   9.943897   2.797861
    29  H    6.221878   8.332866   6.775621   9.187909   3.884373
    30  C    8.176090  10.495120   8.925707  11.308435   2.394752
    31  H    8.672913  10.644323   9.139356  11.591249   3.388324
    32  C    9.059179  11.651709  10.048972  12.361586   1.422999
    33  H   10.125953  12.630145  11.043920  13.387979   2.175562
    34  S    9.161516  12.581094  10.940225  12.816715   2.400314
    35  N    9.683832  12.816716  11.170162  13.252317   1.340279
    36  N    7.518801  10.940224   9.301911  11.170161   2.329211
                   26         27         28         29         30
    26  C    0.000000
    27  C    1.442475   0.000000
    28  C    2.411436   1.390985   0.000000
    29  H    3.404937   2.139904   1.087257   0.000000
    30  C    2.802994   2.467096   1.423672   2.166339   0.000000
    31  H    3.887628   3.424202   2.157509   2.454031   1.085487
    32  C    2.498280   2.904558   2.451274   3.414458   1.374867
    33  H    3.478268   3.988728   3.445762   4.319806   2.160495
    34  S    2.407462   3.828841   4.755300   5.791794   4.741101
    35  N    2.335762   3.672437   4.131353   5.218603   3.662628
    36  N    1.338977   2.486325   3.685637   4.603618   4.132572
                   31         32         33         34         35
    31  H    0.000000
    32  C    2.132787   0.000000
    33  H    2.495950   1.084194   0.000000
    34  S    5.773521   3.799133   4.314494   0.000000
    35  N    4.576906   2.461077   2.750890   1.638820   0.000000
    36  N    5.218060   3.651673   4.504227   1.648101   2.510422
                   36
    36  N    0.000000
 Stoichiometry    C18H8N6O2S2
 Framework group  C1[X(C18H8N6O2S2)]
 Deg. of freedom   102
 Full point group                 C1      NOp   1
 Largest Abelian subgroup         C1      NOp   1
 Largest concise Abelian subgroup C1      NOp   1
                         Standard orientation:                         
 ---------------------------------------------------------------------
 Center     Atomic      Atomic             Coordinates (Angstroms)
 Number     Number       Type             X           Y           Z
 ---------------------------------------------------------------------
      1          7           0       -1.605204   -1.391513    0.000026
      2          6           0       -0.249917   -1.797763    0.000014
      3          6           0       -1.756051   -0.013494    0.000005
      4          6           0       -0.475275    0.531818   -0.000008
      5          6           0        0.475273   -0.531815    0.000000
      6          6           0        1.756051    0.013494   -0.000014
      7          6           0        0.249917    1.797766   -0.000037
      8          7           0        1.605206    1.391514   -0.000039
      9          8           0        0.116446   -2.971104    0.000039
     10          8           0       -0.116446    2.971106   -0.000050
     11          1           0        2.385990    2.038521   -0.000062
     12          1           0       -2.385980   -2.038528    0.000040
     13          6           0        4.289577    0.109197   -0.000030
     14          6           0        5.563126   -0.588845   -0.000022
     15          6           0        5.610937   -2.011041    0.000005
     16          1           0        6.569487   -2.517654    0.000014
     17          6           0        4.415952   -2.690946    0.000019
     18          1           0        4.414200   -3.776432    0.000034
     19          6           0        3.159684   -2.021145    0.000014
     20          1           0        2.250843   -2.617916    0.000025
     21          6           0        3.053434   -0.634223   -0.000010
     22         16           0        6.038154    1.763993   -0.000062
     23          7           0        4.421890    1.441622   -0.000057
     24          7           0        6.622069    0.232731   -0.000044
     25          6           0       -5.563127    0.588845    0.000035
     26          6           0       -4.289578   -0.109199    0.000028
     27          6           0       -3.053432    0.634223    0.000010
     28          6           0       -3.159683    2.021144   -0.000002
     29          1           0       -2.250843    2.617916   -0.000020
     30          6           0       -4.415951    2.690945    0.000005
     31          1           0       -4.414200    3.776431   -0.000004
     32          6           0       -5.610936    2.011041    0.000024
     33          1           0       -6.569485    2.517657    0.000026
     34         16           0       -6.038155   -1.763995    0.000060
     35          7           0       -6.622071   -0.232730    0.000053
     36          7           0       -4.421890   -1.441623    0.000040
 ---------------------------------------------------------------------
 Rotational constants (GHZ):      0.4473175      0.0694140      0.0600895
 Standard basis: 6-31+G(d,p) (6D, 7F)
 There are   580 symmetry adapted basis functions of A   symmetry.
 Integral buffers will be    131072 words long.
 Raffenetti 2 integral format.
 Two-electron integral symmetry is turned on.
   580 basis functions,  1000 primitive gaussians,   580 cartesian basis functions
   103 alpha electrons      103 beta electrons
       nuclear repulsion energy      2629.1724324737 Hartrees.
 NAtoms=   36 NActive=   36 NUniq=   36 SFac= 7.50D-01 NAtFMM=   80 NAOKFM=F Big=F
 One-electron integrals computed using PRISM.
 NBasis=   580 RedAO= T  NBF=   580
 NBsUse=   570 1.00D-06 NBFU=   570
 Harris functional with IExCor=20419 diagonalized for initial guess.
 ExpMin= 4.05D-02 ExpMax= 2.19D+04 ExpMxC= 3.30D+03 IAcc=2 IRadAn=         0 AccDes= 0.00D+00
 HarFok:  IExCor=20419 AccDes= 0.00D+00 IRadAn=         0 IDoV= 1
 ScaDFX=  1.000000  1.000000  1.000000  1.000000
 FoFCou: FMM=F IPFlag=           0 FMFlag=      100000 FMFlg1=           0
         NFxFlg=           0 DoJE=T BraDBF=F KetDBF=T FulRan=T
         Omega=  0.000000  0.000000  1.000000  0.000000  0.000000 ICntrl=     500 IOpCl=  0
         NMat0=    1 NMatS0=    1 NMatT0=    0 NMatD0=    1 NMtDS0=    0 NMtDT0=    0
         I1Cent=           4 NGrid=           0.
 Petite list used in FoFCou.
 Initial guess orbital symmetries:
       Occupied  (A) (A) (A) (A) (A) (A) (A) (A) (A) (A) (A) (A)
                 (A) (A) (A) (A) (A) (A) (A) (A) (A) (A) (A) (A)
                 (A) (A) (A) (A) (A) (A) (A) (A) (A) (A) (A) (A)
                 (A) (A) (A) (A) (A) (A) (A) (A) (A) (A) (A) (A)
                 (A) (A) (A) (A) (A) (A) (A) (A) (A) (A) (A) (A)
                 (A) (A) (A) (A) (A) (A) (A) (A) (A) (A) (A) (A)
                 (A) (A) (A) (A) (A) (A) (A) (A) (A) (A) (A) (A)
                 (A) (A) (A) (A) (A) (A) (A) (A) (A) (A) (A) (A)
                 (A) (A) (A) (A) (A) (A) (A)
       Virtual   (A) (A) (A) (A) (A) (A) (A) (A) (A) (A) (A) (A)
                 (A) (A) (A) (A) (A) (A) (A) (A) (A) (A) (A) (A)
                 (A) (A) (A) (A) (A) (A) (A) (A) (A) (A) (A) (A)
                 (A) (A) (A) (A) (A) (A) (A) (A) (A) (A) (A) (A)
                 (A) (A) (A) (A) (A) (A) (A) (A) (A) (A) (A) (A)
                 (A) (A) (A) (A) (A) (A) (A) (A) (A) (A) (A) (A)
                 (A) (A) (A) (A) (A) (A) (A) (A) (A) (A) (A) (A)
                 (A) (A) (A) (A) (A) (A) (A) (A) (A) (A) (A) (A)
                 (A) (A) (A) (A) (A) (A) (A) (A) (A) (A) (A) (A)
                 (A) (A) (A) (A) (A) (A) (A) (A) (A) (A) (A) (A)
                 (A) (A) (A) (A) (A) (A) (A) (A) (A) (A) (A) (A)
                 (A) (A) (A) (A) (A) (A) (A) (A) (A) (A) (A) (A)
                 (A) (A) (A) (A) (A) (A) (A) (A) (A) (A) (A) (A)
                 (A) (A) (A) (A) (A) (A) (A) (A) (A) (A) (A) (A)
                 (A) (A) (A) (A) (A) (A) (A) (A) (A) (A) (A) (A)
                 (A) (A) (A) (A) (A) (A) (A) (A) (A) (A) (A) (A)
                 (A) (A) (A) (A) (A) (A) (A) (A) (A) (A) (A) (A)
                 (A) (A) (A) (A) (A) (A) (A) (A) (A) (A) (A) (A)
                 (A) (A) (A) (A) (A) (A) (A) (A) (A) (A) (A) (A)
                 (A) (A) (A) (A) (A) (A) (A) (A) (A) (A) (A) (A)
                 (A) (A) (A) (A) (A) (A) (A) (A) (A) (A) (A) (A)
                 (A) (A) (A) (A) (A) (A) (A) (A) (A) (A) (A) (A)
                 (A) (A) (A) (A) (A) (A) (A) (A) (A) (A) (A) (A)
                 (A) (A) (A) (A) (A) (A) (A) (A) (A) (A) (A) (A)
                 (A) (A) (A) (A) (A) (A) (A) (A) (A) (A) (A) (A)
                 (A) (A) (A) (A) (A) (A) (A) (A) (A) (A) (A) (A)
                 (A) (A) (A) (A) (A) (A) (A) (A) (A) (A) (A) (A)
                 (A) (A) (A) (A) (A) (A) (A) (A) (A) (A) (A) (A)
                 (A) (A) (A) (A) (A) (A) (A) (A) (A) (A) (A) (A)
                 (A) (A) (A) (A) (A) (A) (A) (A) (A) (A) (A) (A)
                 (A) (A) (A) (A) (A) (A) (A) (A) (A) (A) (A) (A)
                 (A) (A) (A) (A) (A) (A) (A) (A) (A) (A) (A) (A)
                 (A) (A) (A) (A) (A) (A) (A) (A) (A) (A) (A) (A)
                 (A) (A) (A) (A) (A) (A) (A) (A) (A) (A) (A) (A)
                 (A) (A) (A) (A) (A) (A) (A) (A) (A) (A) (A) (A)
                 (A) (A) (A) (A) (A) (A) (A) (A) (A) (A) (A) (A)
                 (A) (A) (A) (A) (A) (A) (A) (A) (A) (A) (A) (A)
                 (A) (A) (A) (A) (A) (A) (A) (A) (A) (A) (A) (A)
                 (A) (A) (A) (A) (A) (A) (A) (A) (A) (A) (A)
 The electronic state of the initial guess is 1-A.
 Requested convergence on RMS density matrix=1.00D-08 within 128 cycles.
 Requested convergence on MAX density matrix=1.00D-06.
 Requested convergence on             energy=1.00D-06.
 No special actions if energy rises.
 FoFJK:  IHMeth= 1 ICntrl=     0 DoSepK=T KAlg= 1 I1Cent= 0 FoldK=F
 FoFJK:  IHMeth= 1 ICntrl=     0 DoSepK=T KAlg= 1 I1Cent= 0 FoldK=F
 FoFJK:  IHMeth= 1 ICntrl=     0 DoSepK=T KAlg= 1 I1Cent= 0 FoldK=F
 FoFJK:  IHMeth= 1 ICntrl=     0 DoSepK=T KAlg= 1 I1Cent= 0 FoldK=F
 FoFJK:  IHMeth= 1 ICntrl=     0 DoSepK=T KAlg= 1 I1Cent= 0 FoldK=F
 FoFJK:  IHMeth= 1 ICntrl=     0 DoSepK=T KAlg= 1 I1Cent= 0 FoldK=F
 FoFJK:  IHMeth= 1 ICntrl=     0 DoSepK=T KAlg= 1 I1Cent= 0 FoldK=F
 FoFJK:  IHMeth= 1 ICntrl=     0 DoSepK=T KAlg= 1 I1Cent= 0 FoldK=F
 FoFJK:  IHMeth= 1 ICntrl=     0 DoSepK=T KAlg= 1 I1Cent= 0 FoldK=F
 FoFJK:  IHMeth= 1 ICntrl=     0 DoSepK=T KAlg= 1 I1Cent= 0 FoldK=F
 FoFJK:  IHMeth= 1 ICntrl=     0 DoSepK=T KAlg= 1 I1Cent= 0 FoldK=F
 FoFJK:  IHMeth= 1 ICntrl=     0 DoSepK=T KAlg= 1 I1Cent= 0 FoldK=F
 FoFJK:  IHMeth= 1 ICntrl=     0 DoSepK=T KAlg= 1 I1Cent= 0 FoldK=F
 FoFJK:  IHMeth= 1 ICntrl=     0 DoSepK=T KAlg= 1 I1Cent= 0 FoldK=F
 FoFJK:  IHMeth= 1 ICntrl=     0 DoSepK=T KAlg= 1 I1Cent= 0 FoldK=F
 FoFJK:  IHMeth= 1 ICntrl=     0 DoSepK=T KAlg= 1 I1Cent= 0 FoldK=F
 FoFJK:  IHMeth= 1 ICntrl=     0 DoSepK=T KAlg= 1 I1Cent= 0 FoldK=F
 SCF Done:  E(RCAM-B3LYP) =  -1965.53844196     A.U. after   17 cycles
             Convg  =    0.3201D-08             -V/T =  2.0069
 ExpMin= 4.05D-02 ExpMax= 2.19D+04 ExpMxC= 3.30D+03 IAcc=3 IRadAn=         5 AccDes= 0.00D+00
 HarFok:  IExCor=  205 AccDes= 0.00D+00 IRadAn=         5 IDoV=-2
 ScaDFX=  1.000000  1.000000  1.000000  1.000000
 Range of M.O.s used for correlation:    37   570
 NBasis=   580 NAE=   103 NBE=   103 NFC=    36 NFV=     0
 NROrb=    534 NOA=    67 NOB=    67 NVA=   467 NVB=   467

 **** Warning!!: The largest alpha MO coefficient is  0.10624544D+03

 Would need an additional 42263700000 words for in-memory AO integral storage.
 Orbital symmetries:
       Occupied  (A) (A) (A) (A) (A) (A) (A) (A) (A) (A) (A) (A)
                 (A) (A) (A) (A) (A) (A) (A) (A) (A) (A) (A) (A)
                 (A) (A) (A) (A) (A) (A) (A) (A) (A) (A) (A) (A)
                 (A) (A) (A) (A) (A) (A) (A) (A) (A) (A) (A) (A)
                 (A) (A) (A) (A) (A) (A) (A) (A) (A) (A) (A) (A)
                 (A) (A) (A) (A) (A) (A) (A) (A) (A) (A) (A) (A)
                 (A) (A) (A) (A) (A) (A) (A) (A) (A) (A) (A) (A)
                 (A) (A) (A) (A) (A) (A) (A) (A) (A) (A) (A) (A)
                 (A) (A) (A) (A) (A) (A) (A)
       Virtual   (A) (A) (A) (A) (A) (A) (A) (A) (A) (A) (A) (A)
                 (A) (A) (A) (A) (A) (A) (A) (A) (A) (A) (A) (A)
                 (A) (A) (A) (A) (A) (A) (A) (A) (A) (A) (A) (A)
                 (A) (A) (A) (A) (A) (A) (A) (A) (A) (A) (A) (A)
                 (A) (A) (A) (A) (A) (A) (A) (A) (A) (A) (A) (A)
                 (A) (A) (A) (A) (A) (A) (A) (A) (A) (A) (A) (A)
                 (A) (A) (A) (A) (A) (A) (A) (A) (A) (A) (A) (A)
                 (A) (A) (A) (A) (A) (A) (A) (A) (A) (A) (A) (A)
                 (A) (A) (A) (A) (A) (A) (A) (A) (A) (A) (A) (A)
                 (A) (A) (A) (A) (A) (A) (A) (A) (A) (A) (A) (A)
                 (A) (A) (A) (A) (A) (A) (A) (A) (A) (A) (A) (A)
                 (A) (A) (A) (A) (A) (A) (A) (A) (A) (A) (A) (A)
                 (A) (A) (A) (A) (A) (A) (A) (A) (A) (A) (A) (A)
                 (A) (A) (A) (A) (A) (A) (A) (A) (A) (A) (A) (A)
                 (A) (A) (A) (A) (A) (A) (A) (A) (A) (A) (A) (A)
                 (A) (A) (A) (A) (A) (A) (A) (A) (A) (A) (A) (A)
                 (A) (A) (A) (A) (A) (A) (A) (A) (A) (A) (A) (A)
                 (A) (A) (A) (A) (A) (A) (A) (A) (A) (A) (A) (A)
                 (A) (A) (A) (A) (A) (A) (A) (A) (A) (A) (A) (A)
                 (A) (A) (A) (A) (A) (A) (A) (A) (A) (A) (A) (A)
                 (A) (A) (A) (A) (A) (A) (A) (A) (A) (A) (A) (A)
                 (A) (A) (A) (A) (A) (A) (A) (A) (A) (A) (A) (A)
                 (A) (A) (A) (A) (A) (A) (A) (A) (A) (A) (A) (A)
                 (A) (A) (A) (A) (A) (A) (A) (A) (A) (A) (A) (A)
                 (A) (A) (A) (A) (A) (A) (A) (A) (A) (A) (A) (A)
                 (A) (A) (A) (A) (A) (A) (A) (A) (A) (A) (A) (A)
                 (A) (A) (A) (A) (A) (A) (A) (A) (A) (A) (A) (A)
                 (A) (A) (A) (A) (A) (A) (A) (A) (A) (A) (A) (A)
                 (A) (A) (A) (A) (A) (A) (A) (A) (A) (A) (A) (A)
                 (A) (A) (A) (A) (A) (A) (A) (A) (A) (A) (A) (A)
                 (A) (A) (A) (A) (A) (A) (A) (A) (A) (A) (A) (A)
                 (A) (A) (A) (A) (A) (A) (A) (A) (A) (A) (A) (A)
                 (A) (A) (A) (A) (A) (A) (A) (A) (A) (A) (A) (A)
                 (A) (A) (A) (A) (A) (A) (A) (A) (A) (A) (A) (A)
                 (A) (A) (A) (A) (A) (A) (A) (A) (A) (A) (A) (A)
                 (A) (A) (A) (A) (A) (A) (A) (A) (A) (A) (A) (A)
                 (A) (A) (A) (A) (A) (A) (A) (A) (A) (A) (A) (A)
                 (A) (A) (A) (A) (A) (A) (A) (A) (A) (A) (A) (A)
                 (A) (A) (A) (A) (A) (A) (A) (A) (A) (A) (A)
    40 initial guesses have been made.
 Convergence on wavefunction:    0.001000000000000
 Iteration     1 Dimension    40 NMult    40
 CISAX will form    40 AO SS matrices at one time.
 FoFJK:  IHMeth= 1 ICntrl=     0 DoSepK=T KAlg= 1 I1Cent= 0 FoldK=F
 FoFJK:  IHMeth= 1 ICntrl=     0 DoSepK=T KAlg= 1 I1Cent= 0 FoldK=F
 New state      4 was old state      6
 New state      5 was old state      7
 No map to state      6
 New state      7 was old state      5
 New state      8 was old state      4
 New state     10 was old state      8
 Iteration     2 Dimension    60 NMult    60
 FoFJK:  IHMeth= 1 ICntrl=     0 DoSepK=T KAlg= 1 I1Cent= 0 FoldK=F
 FoFJK:  IHMeth= 1 ICntrl=     0 DoSepK=T KAlg= 1 I1Cent= 0 FoldK=F
 New state      6 was old state      7
 New state      7 was old state      8
 New state      8 was old state      6
 New state      9 was old state     10
 New state     10 was old state      9
 Iteration     3 Dimension    80 NMult    80
 FoFJK:  IHMeth= 1 ICntrl=     0 DoSepK=T KAlg= 1 I1Cent= 0 FoldK=F
 FoFJK:  IHMeth= 1 ICntrl=     0 DoSepK=T KAlg= 1 I1Cent= 0 FoldK=F
 Iteration     4 Dimension   100 NMult   100
 FoFJK:  IHMeth= 1 ICntrl=     0 DoSepK=T KAlg= 1 I1Cent= 0 FoldK=F
 FoFJK:  IHMeth= 1 ICntrl=     0 DoSepK=T KAlg= 1 I1Cent= 0 FoldK=F
 Iteration     5 Dimension   120 NMult   120
 FoFJK:  IHMeth= 1 ICntrl=     0 DoSepK=T KAlg= 1 I1Cent= 0 FoldK=F
 FoFJK:  IHMeth= 1 ICntrl=     0 DoSepK=T KAlg= 1 I1Cent= 0 FoldK=F
 Iteration     6 Dimension   132 NMult   132
 FoFJK:  IHMeth= 1 ICntrl=     0 DoSepK=T KAlg= 1 I1Cent= 0 FoldK=F
 FoFJK:  IHMeth= 1 ICntrl=     0 DoSepK=T KAlg= 1 I1Cent= 0 FoldK=F
 Iteration     7 Dimension   136 NMult   136
 FoFJK:  IHMeth= 1 ICntrl=     0 DoSepK=T KAlg= 1 I1Cent= 0 FoldK=F
 FoFJK:  IHMeth= 1 ICntrl=     0 DoSepK=T KAlg= 1 I1Cent= 0 FoldK=F
 Iteration     8 Dimension   138 NMult   138
 FoFJK:  IHMeth= 1 ICntrl=     0 DoSepK=T KAlg= 1 I1Cent= 0 FoldK=F
 FoFJK:  IHMeth= 1 ICntrl=     0 DoSepK=T KAlg= 1 I1Cent= 0 FoldK=F
 ***********************************************************************
 Excited states from <AA,BB:AA,BB> singles matrix:
 ***********************************************************************
 
 Ground to excited state transition electric dipole moments (Au):
       state          X           Y           Z        Dip. S.      Osc.
         1         3.2341      0.0645      0.0000     10.4638      0.5981
         2         0.0000      0.0000      0.0000      0.0000      0.0000
         3         0.4646      0.6345      0.0000      0.6185      0.0535
         4         0.0000      0.0000      0.0000      0.0000      0.0000
         5         0.0000      0.0000      0.0225      0.0005      0.0000
         6         1.7075     -0.4066      0.0000      3.0809      0.3065
         7         0.0000      0.0000      0.0000      0.0000      0.0000
         8         0.0000      0.0000      0.0000      0.0000      0.0000
         9         0.7208      1.5513      0.0000      2.9260      0.3154
        10        -0.0001     -0.0003      0.0000      0.0000      0.0000
 Ground to excited state transition velocity dipole moments (Au):
       state          X           Y           Z        Dip. S.      Osc.
         1        -0.2766     -0.0074      0.0000      0.0766      0.5954
         2         0.0000      0.0000      0.0000      0.0000      0.0000
         3        -0.0550     -0.0871      0.0000      0.0106      0.0545
         4         0.0000      0.0000      0.0000      0.0000      0.0000
         5         0.0000      0.0000     -0.0076      0.0001      0.0003
         6        -0.2483      0.0664      0.0000      0.0661      0.2952
         7         0.0000      0.0000      0.0000      0.0000      0.0000
         8         0.0000      0.0000      0.0000      0.0000      0.0000
         9        -0.1060     -0.2328      0.0000      0.0654      0.2698
        10         0.0000      0.0000      0.0000      0.0000      0.0000
 Ground to excited state transition magnetic dipole moments (Au):
       state          X           Y           Z
         1         0.0000      0.0000      0.0000
         2         0.0000      0.0000      0.0060
         3         0.0000      0.0000      0.0000
         4         0.0000      0.0000     -0.8639
         5         0.0000      0.0000     -0.0001
         6         0.0000      0.0000      0.0000
         7         0.0000      0.0000     -0.5926
         8         0.1521     -0.6712      0.0000
         9         0.0000      0.0000      0.0004
        10         0.0000      0.0000      2.6213
 <0|del|b> * <b|rxdel|0> + <0|del|b> * <b|delr+rdel|0>
 Rotatory Strengths (R) in cgs (10**-40 erg-esu-cm/Gauss)
       state          XX          YY          ZZ    R(velocity)
         1        -0.0002     -0.0019      0.0030      0.0003
 Total R(velocity) tensor for State=          1
                 1             2             3 
      1  -0.194940D-03  0.728327D-02  0.895647D-02
      2   0.510106D-04 -0.190547D-02 -0.106405D-02
      3  -0.516829D-04  0.193114D-02  0.304137D-02
 R(velocity) tensor in inp. orien. for State=          1
                 1             2             3 
      1  -0.194940D-03  0.728327D-02  0.895647D-02
      2   0.510106D-04 -0.190547D-02 -0.106405D-02
      3  -0.516828D-04  0.193114D-02  0.304137D-02
         2        -0.0011      0.0011      0.0000      0.0000
 Total R(velocity) tensor for State=          2
                 1             2             3 
      1  -0.110812D-02 -0.492109D-02 -0.349905D-02
      2   0.214587D-04  0.107670D-02  0.473977D-03
      3   0.619554D-05 -0.197085D-04  0.000000D+00
 R(velocity) tensor in inp. orien. for State=          2
                 1             2             3 
      1  -0.110812D-02 -0.492109D-02 -0.349905D-02
      2   0.214587D-04  0.107670D-02  0.473977D-03
      3   0.619554D-05 -0.197085D-04  0.000000D+00
         3         0.0021      0.0003      0.0004      0.0009
 Total R(velocity) tensor for State=          3
                 1             2             3 
      1   0.214897D-02 -0.135801D-02  0.954412D-03
      2  -0.402457D-03  0.254248D-03 -0.417558D-02
      3   0.346212D-03 -0.218779D-03  0.402892D-03
 R(velocity) tensor in inp. orien. for State=          3
                 1             2             3 
      1   0.214897D-02 -0.135801D-02  0.954412D-03
      2  -0.402457D-03  0.254248D-03 -0.417558D-02
      3   0.346212D-03 -0.218779D-03  0.402892D-03
         4        -0.0004     -0.0008      0.0000     -0.0004
 Total R(velocity) tensor for State=          4
                 1             2             3 
      1  -0.431418D-03  0.539094D-03  0.231744D-02
      2  -0.798227D-04 -0.794309D-03  0.221874D-02
      3  -0.353515D-04  0.139045D-03  0.000000D+00
 R(velocity) tensor in inp. orien. for State=          4
                 1             2             3 
      1  -0.431418D-03  0.539094D-03  0.231744D-02
      2  -0.798227D-04 -0.794309D-03  0.221874D-02
      3  -0.353515D-04  0.139045D-03  0.000000D+00
         5         0.0008      0.0015      0.0000      0.0008
 Total R(velocity) tensor for State=          5
                 1             2             3 
      1   0.814465D-03 -0.116085D-02  0.000000D+00
      2   0.300228D-03  0.151910D-02  0.000000D+00
      3   0.156020D-05 -0.225115D-04  0.000000D+00
 R(velocity) tensor in inp. orien. for State=          5
                 1             2             3 
      1   0.814465D-03 -0.116085D-02  0.000000D+00
      2   0.300228D-03  0.151910D-02  0.000000D+00
      3   0.156020D-05 -0.225115D-04  0.000000D+00
         6         0.0007     -0.0036     -0.0044     -0.0024
 Total R(velocity) tensor for State=          6
                 1             2             3 
      1   0.727489D-03  0.271875D-02  0.256624D-01
      2  -0.959388D-03 -0.358584D-02 -0.180266D-02
      3   0.235650D-05  0.886912D-05 -0.438572D-02
 R(velocity) tensor in inp. orien. for State=          6
                 1             2             3 
      1   0.727489D-03  0.271875D-02  0.256624D-01
      2  -0.959388D-03 -0.358584D-02 -0.180266D-02
      3   0.235650D-05  0.886912D-05 -0.438572D-02
         7         0.0005      0.0021      0.0000      0.0009
 Total R(velocity) tensor for State=          7
                 1             2             3 
      1   0.462406D-03 -0.690667D-02 -0.207274D-01
      2  -0.233143D-03  0.208897D-02  0.665214D-02
      3   0.354091D-04  0.533529D-04  0.000000D+00
 R(velocity) tensor in inp. orien. for State=          7
                 1             2             3 
      1   0.462406D-03 -0.690667D-02 -0.207274D-01
      2  -0.233143D-03  0.208897D-02  0.665214D-02
      3   0.354091D-04  0.533529D-04  0.000000D+00
         8         0.0007      0.0005      0.0011      0.0008
 Total R(velocity) tensor for State=          8
                 1             2             3 
      1   0.722758D-03  0.214321D-02  0.000000D+00
      2   0.154735D-03  0.458841D-03  0.000000D+00
      3  -0.873393D-04  0.362589D-03  0.109275D-02
 R(velocity) tensor in inp. orien. for State=          8
                 1             2             3 
      1   0.722758D-03  0.214321D-02  0.000000D+00
      2   0.154735D-03  0.458841D-03  0.000000D+00
      3  -0.873393D-04  0.362589D-03  0.109275D-02
         9         0.0059     -0.0008      0.0010      0.0020
 Total R(velocity) tensor for State=          9
                 1             2             3 
      1   0.589896D-02 -0.268386D-02  0.582938D-01
      2   0.183757D-02 -0.836101D-03  0.139692D-01
      3   0.254911D-02 -0.116012D-02  0.104525D-02
 R(velocity) tensor in inp. orien. for State=          9
                 1             2             3 
      1   0.589896D-02 -0.268386D-02  0.582938D-01
      2   0.183757D-02 -0.836101D-03  0.139692D-01
      3   0.254911D-02 -0.116012D-02  0.104525D-02
        10        -0.0041     -0.0002      0.0000     -0.0014
 Total R(velocity) tensor for State=         10
                 1             2             3 
      1  -0.406329D-02  0.154815D-02 -0.295216D-01
      2   0.130584D-03 -0.190535D-03 -0.126603D-01
      3  -0.313931D-02  0.143205D-02  0.000000D+00
 R(velocity) tensor in inp. orien. for State=         10
                 1             2             3 
      1  -0.406329D-02  0.154815D-02 -0.295216D-01
      2   0.130584D-03 -0.190535D-03 -0.126603D-01
      3  -0.313931D-02  0.143205D-02  0.000000D+00
 1/2[<0|r|b>*<b|rxdel|0> + (<0|rxdel|b>*<b|r|0>)*]
 Rotatory Strengths (R) in cgs (10**-40 erg-esu-cm/Gauss)
       state          XX          YY          ZZ     R(length)     R(au)
         1         0.0011     -0.0001      0.0000      0.0003      0.0000
         2         0.0000      0.0000      0.0000      0.0000      0.0000
         3         0.0010      0.0018      0.0000      0.0009      0.0000
         4         0.0000      0.0000      0.0002      0.0001      0.0000
         5         0.0000      0.0000      0.0010      0.0003      0.0000
         6        -0.0073     -0.0001      0.0000     -0.0025      0.0000
         7         0.0000      0.0000      0.0020      0.0007      0.0000
         8         0.0009     -0.0004      0.0000      0.0002      0.0000
         9        -0.0018      0.0083      0.0000      0.0022      0.0000
        10         0.0000      0.0000     -0.0064     -0.0021      0.0000
  1/2[<0|del|b>*<b|r|0> + (<0|r|b>*<b|del|0>)*] (Au)
       state          X           Y           Z        Dip. S.   Osc.(frdel)
         1        -0.8946     -0.0005      0.0000      0.8950      0.5967
         2         0.0000      0.0000      0.0000      0.0000      0.0000
         3        -0.0256     -0.0553      0.0000      0.0808      0.0539
         4         0.0000      0.0000      0.0000      0.0000      0.0000
         5         0.0000      0.0000     -0.0002      0.0002      0.0001
         6        -0.4240     -0.0270      0.0000      0.4510      0.3007
         7         0.0000      0.0000      0.0000      0.0000      0.0000
         8         0.0000      0.0000      0.0000      0.0000      0.0000
         9        -0.0764     -0.3612      0.0000      0.4376      0.2917
        10         0.0000      0.0000      0.0000      0.0000      0.0000
 Ground to excited state transition densities written to RWF  633

 Excitation energies and oscillator strengths:
 
 Excited State   1:      Singlet-A      2.3329 eV  531.46 nm  f=0.5981  <S**2>=0.000
     103 ->104         0.69867
 This state for optimization and/or second-order correction.
 Copying the excited state density for this state as the 1-particle RhoCI density.
 
 Excited State   2:      Singlet-A      2.9389 eV  421.87 nm  f=0.0000  <S**2>=0.000
     103 ->105         0.69451
 
 Excited State   3:      Singlet-A      3.5323 eV  351.01 nm  f=0.0535  <S**2>=0.000
     102 ->105        -0.12428
     103 ->106         0.68550
 
 Excited State   4:      Singlet-A      3.6536 eV  339.35 nm  f=0.0000  <S**2>=0.000
      97 ->104        -0.17468
      97 ->106        -0.10495
     100 ->104         0.44164
     100 ->106         0.22922
     102 ->104         0.41558
     102 ->106         0.15528
 
 Excited State   5:      Singlet-A      3.7705 eV  328.83 nm  f=0.0000  <S**2>=0.000
      99 ->104         0.61028
      99 ->106         0.29342
 
 Excited State   6:      Singlet-A      4.0606 eV  305.33 nm  f=0.3065  <S**2>=0.000
     100 ->105        -0.17367
     101 ->104         0.60122
     102 ->105         0.28635
 
 Excited State   7:      Singlet-A      4.0874 eV  303.33 nm  f=0.0000  <S**2>=0.000
     100 ->104        -0.39466
     101 ->105         0.33829
     102 ->104         0.44612
 
 Excited State   8:      Singlet-A      4.2136 eV  294.25 nm  f=0.0000  <S**2>=0.000
      96 ->104         0.56823
      96 ->106         0.28339
      99 ->105        -0.20811
      99 ->107        -0.14757
 
 Excited State   9:      Singlet-A      4.3994 eV  281.82 nm  f=0.3154  <S**2>=0.000
      97 ->105        -0.32772
      98 ->104         0.52538
     100 ->105        -0.17388
     102 ->105        -0.11848
     102 ->112         0.10668
     103 ->113         0.15039
 
 Excited State  10:      Singlet-A      4.4024 eV  281.63 nm  f=0.0000  <S**2>=0.000
      97 ->104         0.50162
      98 ->105        -0.37582
     100 ->104         0.15423
     102 ->113        -0.10746
     103 ->112        -0.15591
 SavETr:  write IOETrn=   770 NScale= 10 NData=  16 NLR=1 LETran=     190.

 **********************************************************************

            Population analysis using the SCF density.

 **********************************************************************

 Orbital symmetries:
       Occupied  (A) (A) (A) (A) (A) (A) (A) (A) (A) (A) (A) (A)
                 (A) (A) (A) (A) (A) (A) (A) (A) (A) (A) (A) (A)
                 (A) (A) (A) (A) (A) (A) (A) (A) (A) (A) (A) (A)
                 (A) (A) (A) (A) (A) (A) (A) (A) (A) (A) (A) (A)
                 (A) (A) (A) (A) (A) (A) (A) (A) (A) (A) (A) (A)
                 (A) (A) (A) (A) (A) (A) (A) (A) (A) (A) (A) (A)
                 (A) (A) (A) (A) (A) (A) (A) (A) (A) (A) (A) (A)
                 (A) (A) (A) (A) (A) (A) (A) (A) (A) (A) (A) (A)
                 (A) (A) (A) (A) (A) (A) (A)
       Virtual   (A) (A) (A) (A) (A) (A) (A) (A) (A) (A) (A) (A)
                 (A) (A) (A) (A) (A) (A) (A) (A) (A) (A) (A) (A)
                 (A) (A) (A) (A) (A) (A) (A) (A) (A) (A) (A) (A)
                 (A) (A) (A) (A) (A) (A) (A) (A) (A) (A) (A) (A)
                 (A) (A) (A) (A) (A) (A) (A) (A) (A) (A) (A) (A)
                 (A) (A) (A) (A) (A) (A) (A) (A) (A) (A) (A) (A)
                 (A) (A) (A) (A) (A) (A) (A) (A) (A) (A) (A) (A)
                 (A) (A) (A) (A) (A) (A) (A) (A) (A) (A) (A) (A)
                 (A) (A) (A) (A) (A) (A) (A) (A) (A) (A) (A) (A)
                 (A) (A) (A) (A) (A) (A) (A) (A) (A) (A) (A) (A)
                 (A) (A) (A) (A) (A) (A) (A) (A) (A) (A) (A) (A)
                 (A) (A) (A) (A) (A) (A) (A) (A) (A) (A) (A) (A)
                 (A) (A) (A) (A) (A) (A) (A) (A) (A) (A) (A) (A)
                 (A) (A) (A) (A) (A) (A) (A) (A) (A) (A) (A) (A)
                 (A) (A) (A) (A) (A) (A) (A) (A) (A) (A) (A) (A)
                 (A) (A) (A) (A) (A) (A) (A) (A) (A) (A) (A) (A)
                 (A) (A) (A) (A) (A) (A) (A) (A) (A) (A) (A) (A)
                 (A) (A) (A) (A) (A) (A) (A) (A) (A) (A) (A) (A)
                 (A) (A) (A) (A) (A) (A) (A) (A) (A) (A) (A) (A)
                 (A) (A) (A) (A) (A) (A) (A) (A) (A) (A) (A) (A)
                 (A) (A) (A) (A) (A) (A) (A) (A) (A) (A) (A) (A)
                 (A) (A) (A) (A) (A) (A) (A) (A) (A) (A) (A) (A)
                 (A) (A) (A) (A) (A) (A) (A) (A) (A) (A) (A) (A)
                 (A) (A) (A) (A) (A) (A) (A) (A) (A) (A) (A) (A)
                 (A) (A) (A) (A) (A) (A) (A) (A) (A) (A) (A) (A)
                 (A) (A) (A) (A) (A) (A) (A) (A) (A) (A) (A) (A)
                 (A) (A) (A) (A) (A) (A) (A) (A) (A) (A) (A) (A)
                 (A) (A) (A) (A) (A) (A) (A) (A) (A) (A) (A) (A)
                 (A) (A) (A) (A) (A) (A) (A) (A) (A) (A) (A) (A)
                 (A) (A) (A) (A) (A) (A) (A) (A) (A) (A) (A) (A)
                 (A) (A) (A) (A) (A) (A) (A) (A) (A) (A) (A) (A)
                 (A) (A) (A) (A) (A) (A) (A) (A) (A) (A) (A) (A)
                 (A) (A) (A) (A) (A) (A) (A) (A) (A) (A) (A) (A)
                 (A) (A) (A) (A) (A) (A) (A) (A) (A) (A) (A) (A)
                 (A) (A) (A) (A) (A) (A) (A) (A) (A) (A) (A) (A)
                 (A) (A) (A) (A) (A) (A) (A) (A) (A) (A) (A) (A)
                 (A) (A) (A) (A) (A) (A) (A) (A) (A) (A) (A) (A)
                 (A) (A) (A) (A) (A) (A) (A) (A) (A) (A) (A) (A)
                 (A) (A) (A) (A) (A) (A) (A) (A) (A) (A) (A)
 The electronic state is 1-A.
 Alpha  occ. eigenvalues --  -89.07495 -89.07495 -19.21602 -19.21602 -14.47500
 Alpha  occ. eigenvalues --  -14.47500 -14.47365 -14.47365 -14.46290 -14.46290
 Alpha  occ. eigenvalues --  -10.38893 -10.38892 -10.35629 -10.35629 -10.34896
 Alpha  occ. eigenvalues --  -10.34896 -10.34342 -10.34342 -10.32085 -10.32085
 Alpha  occ. eigenvalues --  -10.30710 -10.30710 -10.30394 -10.30394 -10.30339
 Alpha  occ. eigenvalues --  -10.30339 -10.27754 -10.27709  -8.12856  -8.12856
 Alpha  occ. eigenvalues --   -6.09526  -6.09526  -6.08923  -6.08923  -6.08676
 Alpha  occ. eigenvalues --   -6.08676  -1.13989  -1.13404  -1.12950  -1.12948
 Alpha  occ. eigenvalues --   -1.06888  -1.05548  -0.99946  -0.99870  -0.96953
 Alpha  occ. eigenvalues --   -0.96930  -0.89983  -0.88721  -0.87927  -0.86704
 Alpha  occ. eigenvalues --   -0.86579  -0.81347  -0.78396  -0.76090  -0.74840
 Alpha  occ. eigenvalues --   -0.74269  -0.71695  -0.71184  -0.70345  -0.68919
 Alpha  occ. eigenvalues --   -0.65587  -0.62606  -0.61316  -0.60829  -0.60164
 Alpha  occ. eigenvalues --   -0.59237  -0.58192  -0.57303  -0.56818  -0.56153
 Alpha  occ. eigenvalues --   -0.55659  -0.55159  -0.55044  -0.54100  -0.52916
 Alpha  occ. eigenvalues --   -0.51509  -0.51090  -0.50418  -0.48480  -0.48312
 Alpha  occ. eigenvalues --   -0.46916  -0.46913  -0.46840  -0.46379  -0.46299
 Alpha  occ. eigenvalues --   -0.46138  -0.45096  -0.43118  -0.42812  -0.41330
 Alpha  occ. eigenvalues --   -0.41315  -0.40376  -0.40196  -0.39394  -0.39329
 Alpha  occ. eigenvalues --   -0.35207  -0.34118  -0.33935  -0.33381  -0.33284
 Alpha  occ. eigenvalues --   -0.32630  -0.32013  -0.24898
 Alpha virt. eigenvalues --   -0.09487  -0.07356  -0.04524   0.00857   0.02224
 Alpha virt. eigenvalues --    0.02296   0.02580   0.02907   0.02937   0.02976
 Alpha virt. eigenvalues --    0.03766   0.03843   0.04324   0.04699   0.04846
 Alpha virt. eigenvalues --    0.04970   0.05505   0.06060   0.06093   0.06708
 Alpha virt. eigenvalues --    0.06960   0.07368   0.07893   0.08087   0.08794
 Alpha virt. eigenvalues --    0.09400   0.09414   0.09877   0.10311   0.10515
 Alpha virt. eigenvalues --    0.10582   0.10979   0.11502   0.12238   0.12730
 Alpha virt. eigenvalues --    0.13188   0.13240   0.13596   0.13634   0.13722
 Alpha virt. eigenvalues --    0.13791   0.13825   0.14821   0.14988   0.15122
 Alpha virt. eigenvalues --    0.15158   0.16125   0.16375   0.16625   0.17312
 Alpha virt. eigenvalues --    0.17839   0.18094   0.18568   0.18838   0.19315
 Alpha virt. eigenvalues --    0.19415   0.19631   0.19930   0.20120   0.20545
 Alpha virt. eigenvalues --    0.20815   0.20823   0.21338   0.21762   0.21963
 Alpha virt. eigenvalues --    0.22240   0.22442   0.22910   0.23009   0.23242
 Alpha virt. eigenvalues --    0.23593   0.23823   0.24179   0.24276   0.24382
 Alpha virt. eigenvalues --    0.24553   0.24757   0.24968   0.25226   0.25591
 Alpha virt. eigenvalues --    0.25820   0.26451   0.26468   0.26603   0.27026
 Alpha virt. eigenvalues --    0.27312   0.27413   0.27908   0.28051   0.28121
 Alpha virt. eigenvalues --    0.28855   0.28961   0.29107   0.29156   0.29278
 Alpha virt. eigenvalues --    0.29538   0.29804   0.30555   0.30560   0.30656
 Alpha virt. eigenvalues --    0.31285   0.31437   0.31963   0.32183   0.32396
 Alpha virt. eigenvalues --    0.32463   0.32770   0.32835   0.33344   0.34418
 Alpha virt. eigenvalues --    0.34496   0.34581   0.34994   0.35165   0.35870
 Alpha virt. eigenvalues --    0.36260   0.36562   0.36609   0.36779   0.37167
 Alpha virt. eigenvalues --    0.37751   0.38078   0.38452   0.39447   0.40191
 Alpha virt. eigenvalues --    0.40399   0.41722   0.41796   0.42326   0.42762
 Alpha virt. eigenvalues --    0.43631   0.44548   0.45025   0.46218   0.46354
 Alpha virt. eigenvalues --    0.46777   0.47384   0.48634   0.49471   0.49955
 Alpha virt. eigenvalues --    0.50719   0.52031   0.52182   0.52424   0.52760
 Alpha virt. eigenvalues --    0.52907   0.53922   0.53988   0.54593   0.55617
 Alpha virt. eigenvalues --    0.56227   0.56432   0.60748   0.61151   0.64131
 Alpha virt. eigenvalues --    0.64835   0.67259   0.68338   0.68996   0.69203
 Alpha virt. eigenvalues --    0.69315   0.70167   0.70279   0.70627   0.72073
 Alpha virt. eigenvalues --    0.72543   0.72695   0.73228   0.73343   0.74329
 Alpha virt. eigenvalues --    0.75099   0.75490   0.75632   0.76099   0.76521
 Alpha virt. eigenvalues --    0.76792   0.77397   0.78163   0.78165   0.78391
 Alpha virt. eigenvalues --    0.78574   0.79703   0.79961   0.80855   0.80917
 Alpha virt. eigenvalues --    0.81529   0.82540   0.82578   0.83324   0.84239
 Alpha virt. eigenvalues --    0.85174   0.85891   0.86467   0.87662   0.87879
 Alpha virt. eigenvalues --    0.88527   0.89736   0.91423   0.91847   0.92530
 Alpha virt. eigenvalues --    0.93055   0.93559   0.93844   0.98362   0.98460
 Alpha virt. eigenvalues --    0.99925   1.00431   1.00910   1.02829   1.03232
 Alpha virt. eigenvalues --    1.03245   1.03880   1.04667   1.04766   1.04953
 Alpha virt. eigenvalues --    1.05921   1.06653   1.07388   1.08473   1.09375
 Alpha virt. eigenvalues --    1.09618   1.09713   1.09840   1.11319   1.11754
 Alpha virt. eigenvalues --    1.13270   1.13422   1.14786   1.15018   1.16430
 Alpha virt. eigenvalues --    1.16632   1.17445   1.18057   1.19978   1.20029
 Alpha virt. eigenvalues --    1.21312   1.21397   1.22433   1.22840   1.24456
 Alpha virt. eigenvalues --    1.25025   1.25971   1.26324   1.26530   1.26827
 Alpha virt. eigenvalues --    1.27383   1.28100   1.28187   1.30554   1.30684
 Alpha virt. eigenvalues --    1.31114   1.31998   1.33239   1.33549   1.33811
 Alpha virt. eigenvalues --    1.33846   1.34324   1.35019   1.35054   1.35275
 Alpha virt. eigenvalues --    1.37062   1.38134   1.38307   1.38694   1.39449
 Alpha virt. eigenvalues --    1.41313   1.41406   1.41847   1.42163   1.42501
 Alpha virt. eigenvalues --    1.42504   1.42567   1.43680   1.43791   1.44978
 Alpha virt. eigenvalues --    1.45180   1.45950   1.46223   1.46494   1.46663
 Alpha virt. eigenvalues --    1.48218   1.48650   1.51311   1.55269   1.56403
 Alpha virt. eigenvalues --    1.57108   1.58571   1.58874   1.60179   1.65443
 Alpha virt. eigenvalues --    1.65493   1.67836   1.71114   1.74494   1.75388
 Alpha virt. eigenvalues --    1.76441   1.76625   1.76891   1.77574   1.77808
 Alpha virt. eigenvalues --    1.80774   1.81515   1.81560   1.81693   1.82696
 Alpha virt. eigenvalues --    1.83647   1.84104   1.85978   1.88075   1.88794
 Alpha virt. eigenvalues --    1.90207   1.90250   1.90377   1.90547   1.90864
 Alpha virt. eigenvalues --    1.91806   1.92821   1.95757   1.95784   1.96725
 Alpha virt. eigenvalues --    1.96985   1.97346   1.99092   2.00027   2.00685
 Alpha virt. eigenvalues --    2.01548   2.02040   2.02706   2.02714   2.03703
 Alpha virt. eigenvalues --    2.03915   2.04788   2.04848   2.04867   2.07992
 Alpha virt. eigenvalues --    2.08375   2.10515   2.11208   2.11574   2.12501
 Alpha virt. eigenvalues --    2.15636   2.17206   2.17819   2.19917   2.21747
 Alpha virt. eigenvalues --    2.22695   2.24701   2.26088   2.26396   2.27864
 Alpha virt. eigenvalues --    2.31322   2.32545   2.32644   2.32725   2.34950
 Alpha virt. eigenvalues --    2.35613   2.36324   2.37133   2.38364   2.38596
 Alpha virt. eigenvalues --    2.40210   2.40289   2.43696   2.43823   2.43957
 Alpha virt. eigenvalues --    2.44304   2.46514   2.47292   2.50087   2.50190
 Alpha virt. eigenvalues --    2.50574   2.50990   2.51164   2.51928   2.52515
 Alpha virt. eigenvalues --    2.53189   2.54487   2.54701   2.56179   2.57132
 Alpha virt. eigenvalues --    2.59168   2.59498   2.61126   2.61741   2.61931
 Alpha virt. eigenvalues --    2.63602   2.65476   2.66938   2.66974   2.68036
 Alpha virt. eigenvalues --    2.68690   2.70083   2.70805   2.71430   2.72917
 Alpha virt. eigenvalues --    2.74744   2.76212   2.76627   2.77785   2.79100
 Alpha virt. eigenvalues --    2.81879   2.82557   2.83767   2.84813   2.85680
 Alpha virt. eigenvalues --    2.87690   2.87756   2.91044   2.93345   2.93535
 Alpha virt. eigenvalues --    2.95964   3.00062   3.00888   3.03155   3.06166
 Alpha virt. eigenvalues --    3.08165   3.09480   3.11835   3.11887   3.15077
 Alpha virt. eigenvalues --    3.15623   3.17716   3.22337   3.28270   3.29275
 Alpha virt. eigenvalues --    3.31292   3.34741   3.35929   3.36235   3.38909
 Alpha virt. eigenvalues --    3.38977   3.47557   3.50757   3.51169   3.56935
 Alpha virt. eigenvalues --    3.67048   3.68380   3.84926   3.85220   4.00595
 Alpha virt. eigenvalues --    4.00663   4.16358   4.16400   4.27407   4.28166
 Alpha virt. eigenvalues --    4.32876   4.35408   4.35570   4.37971   4.40547
 Alpha virt. eigenvalues --    4.43098   4.43778   4.44492   4.49783   4.51247
 Alpha virt. eigenvalues --    4.53861   4.55254   4.56341   4.62640   4.64651
 Alpha virt. eigenvalues --    4.67529   4.75162   4.84019   4.92407   4.94107
 Alpha virt. eigenvalues --    5.11557   5.19534
          Condensed to atoms (all electrons):
              1          2          3          4          5          6
     1  N    7.439342   0.343607  -0.053430  -0.245377  -0.379212   0.089330
     2  C    0.343607   8.584160  -0.508956  -0.865213  -2.569832  -0.039612
     3  C   -0.053430  -0.508956   9.100385   0.681775  -0.137080   0.407862
     4  C   -0.245377  -0.865213   0.681775  10.732213   0.562707  -0.137081
     5  C   -0.379212  -2.569832  -0.137080   0.562707  10.732219   0.681766
     6  C    0.089330  -0.039612   0.407862  -0.137081   0.681766   9.100386
     7  C   -0.001169   0.666814  -0.039615  -2.569812  -0.865201  -0.508953
     8  N    0.003582  -0.001170   0.089329  -0.379205  -0.245376  -0.053428
     9  O   -0.078213   0.266392  -0.028004  -0.025668   0.021881   0.035532
    10  O   -0.004706   0.003170   0.035532   0.021883  -0.025669  -0.028005
    11  H    0.000165   0.007497   0.003166  -0.022458   0.045190  -0.003766
    12  H    0.299700  -0.007821  -0.003766   0.045190  -0.022457   0.003166
    13  C    0.025926  -0.091689  -0.117327  -0.210885   0.082770  -0.825039
    14  C   -0.000431  -0.172692  -0.107253   0.056488  -0.510307  -0.919429
    15  C    0.003060  -0.032892  -0.010831  -0.066410   0.020453  -0.249397
    16  H    0.000000  -0.000071  -0.000009   0.000054   0.000032   0.002402
    17  C    0.029579   0.289771   0.078560   0.026124  -0.283101  -0.642716
    18  H   -0.000005  -0.002057  -0.000105  -0.000358  -0.001298  -0.004946
    19  C    0.087503  -0.372842  -0.302792  -0.196101  -1.284708  -1.940453
    20  H    0.002829   0.019903   0.012656  -0.012597   0.030773  -0.033587
    21  C   -0.080615  -0.296170  -0.321327   0.201136   0.801902   1.181179
    22  S    0.000178   0.004592   0.001211  -0.013917   0.011742   0.008238
    23  N   -0.001342   0.024259   0.026939  -0.079227   0.030705  -0.110393
    24  N    0.000071   0.006172   0.002101  -0.007695   0.035436   0.059400
    25  C   -0.025554  -0.069548  -0.919442  -0.510315   0.056487  -0.107254
    26  C    0.005153   0.169518  -0.825062   0.082761  -0.210884  -0.117332
    27  C   -0.128362   0.000299   1.181190   0.801907   0.201136  -0.321328
    28  C    0.030739  -0.062994  -1.940416  -1.284708  -0.196090  -0.302788
    29  H    0.001283   0.001086  -0.033587   0.030774  -0.012597   0.012656
    30  C    0.055979   0.035018  -0.642730  -0.283104   0.026125   0.078561
    31  H    0.000029  -0.000026  -0.004946  -0.001298  -0.000358  -0.000105
    32  C    0.042629  -0.020809  -0.249394   0.020456  -0.066410  -0.010831
    33  H    0.000042   0.000036   0.002402   0.000032   0.000054  -0.000009
    34  S   -0.025447  -0.009735   0.008241   0.011742  -0.013917   0.001211
    35  N   -0.004188   0.009215   0.059399   0.035436  -0.007695   0.002101
    36  N    0.049826   0.059570  -0.110394   0.030706  -0.079227   0.026939
              7          8          9         10         11         12
     1  N   -0.001169   0.003582  -0.078213  -0.004706   0.000165   0.299700
     2  C    0.666814  -0.001170   0.266392   0.003170   0.007497  -0.007821
     3  C   -0.039615   0.089329  -0.028004   0.035532   0.003166  -0.003766
     4  C   -2.569812  -0.379205  -0.025668   0.021883  -0.022458   0.045190
     5  C   -0.865201  -0.245376   0.021881  -0.025669   0.045190  -0.022457
     6  C   -0.508953  -0.053428   0.035532  -0.028005  -0.003766   0.003166
     7  C    8.584125   0.343602   0.003170   0.266392  -0.007820   0.007497
     8  N    0.343602   7.439338  -0.004706  -0.078212   0.299699   0.000165
     9  O    0.003170  -0.004706   8.442790  -0.000023   0.000020  -0.002165
    10  O    0.266392  -0.078212  -0.000023   8.442787  -0.002165   0.000020
    11  H   -0.007820   0.299699   0.000020  -0.002165   0.344401   0.000000
    12  H    0.007497   0.000165  -0.002165   0.000020   0.000000   0.344402
    13  C    0.169520   0.005153  -0.000321   0.001339   0.014275   0.000142
    14  C   -0.069550  -0.025554  -0.000765   0.000681  -0.007725  -0.000020
    15  C   -0.020809   0.042629  -0.003356   0.000207   0.001157   0.000010
    16  H    0.000036   0.000042   0.000006   0.000000   0.000000   0.000000
    17  C    0.035018   0.055979  -0.113640   0.000497  -0.002024   0.000363
    18  H   -0.000026   0.000029   0.000199   0.000000   0.000000   0.000000
    19  C   -0.062990   0.030740  -0.058594   0.004045  -0.017262   0.002319
    20  H    0.001086   0.001283   0.000523   0.000005   0.000003  -0.000003
    21  C    0.000297  -0.128359   0.078497   0.014074  -0.033915  -0.002042
    22  S   -0.009735  -0.025447  -0.000054  -0.000160  -0.002158   0.000000
    23  N    0.059570   0.049825   0.000558  -0.006412   0.028459  -0.000001
    24  N    0.009215  -0.004188  -0.000055  -0.000024   0.001110   0.000000
    25  C   -0.172691  -0.000431   0.000681  -0.000765  -0.000020  -0.007725
    26  C   -0.091689   0.025927   0.001340  -0.000321   0.000142   0.014274
    27  C   -0.296174  -0.080614   0.014075   0.078497  -0.002042  -0.033915
    28  C   -0.372834   0.087501   0.004045  -0.058593   0.002319  -0.017262
    29  H    0.019903   0.002829   0.000005   0.000523  -0.000003   0.000003
    30  C    0.289771   0.029578   0.000497  -0.113640   0.000363  -0.002024
    31  H   -0.002057  -0.000005   0.000000   0.000199   0.000000   0.000000
    32  C   -0.032891   0.003060   0.000207  -0.003356   0.000010   0.001157
    33  H   -0.000071   0.000000   0.000000   0.000006   0.000000   0.000000
    34  S    0.004592   0.000178  -0.000160  -0.000054   0.000000  -0.002158
    35  N    0.006172   0.000071  -0.000024  -0.000055   0.000000   0.001110
    36  N    0.024259  -0.001342  -0.006412   0.000558  -0.000001   0.028459
             13         14         15         16         17         18
     1  N    0.025926  -0.000431   0.003060   0.000000   0.029579  -0.000005
     2  C   -0.091689  -0.172692  -0.032892  -0.000071   0.289771  -0.002057
     3  C   -0.117327  -0.107253  -0.010831  -0.000009   0.078560  -0.000105
     4  C   -0.210885   0.056488  -0.066410   0.000054   0.026124  -0.000358
     5  C    0.082770  -0.510307   0.020453   0.000032  -0.283101  -0.001298
     6  C   -0.825039  -0.919429  -0.249397   0.002402  -0.642716  -0.004946
     7  C    0.169520  -0.069550  -0.020809   0.000036   0.035018  -0.000026
     8  N    0.005153  -0.025554   0.042629   0.000042   0.055979   0.000029
     9  O   -0.000321  -0.000765  -0.003356   0.000006  -0.113640   0.000199
    10  O    0.001339   0.000681   0.000207   0.000000   0.000497   0.000000
    11  H    0.014275  -0.007725   0.001157   0.000000  -0.002024   0.000000
    12  H    0.000142  -0.000020   0.000010   0.000000   0.000363   0.000000
    13  C    8.127898  -1.368636  -1.357577   0.004964   1.307452  -0.001507
    14  C   -1.368636  11.027545  -1.693402   0.060943  -0.903539  -0.001631
    15  C   -1.357577  -1.693402  10.747477   0.269745   0.272814  -0.001808
    16  H    0.004964   0.060943   0.269745   0.519239  -0.052029  -0.003566
    17  C    1.307452  -0.903539   0.272814  -0.052029   8.800574   0.354499
    18  H   -0.001507  -0.001631  -0.001808  -0.003566   0.354499   0.527858
    19  C   -0.382342   3.117717  -1.083879   0.036036  -2.048601  -0.019302
    20  H    0.037149  -0.024546   0.018764  -0.000124   0.048556  -0.004401
    21  C    0.071122  -2.534272   0.373155   0.007676  -0.958744   0.002035
    22  S    0.019468  -0.264395  -0.220418  -0.001988   0.037653   0.000518
    23  N   -0.041647   0.301808  -0.010163  -0.001315  -0.081315   0.000350
    24  N    0.271560   0.010046  -0.277763  -0.006090   0.071944  -0.000597
    25  C   -0.002840  -0.000112  -0.000054   0.000000   0.000083   0.000000
    26  C   -0.017187  -0.002840  -0.000118   0.000000  -0.000649  -0.000001
    27  C   -0.040012  -0.003987  -0.004785   0.000000   0.008540  -0.000006
    28  C   -0.041888  -0.005132  -0.001125   0.000000  -0.000439   0.000001
    29  H    0.000083   0.000007   0.000004   0.000000  -0.000026   0.000000
    30  C   -0.000649   0.000083   0.000019   0.000000  -0.000148   0.000000
    31  H   -0.000001   0.000000   0.000000   0.000000   0.000000   0.000000
    32  C   -0.000118  -0.000054   0.000000   0.000000   0.000019   0.000000
    33  H    0.000000   0.000000   0.000000   0.000000   0.000000   0.000000
    34  S   -0.000056  -0.000006   0.000000   0.000000   0.000129   0.000000
    35  N    0.000006   0.000000   0.000000   0.000000   0.000002   0.000000
    36  N    0.000852  -0.000008   0.000024   0.000000   0.001164   0.000000
             19         20         21         22         23         24
     1  N    0.087503   0.002829  -0.080615   0.000178  -0.001342   0.000071
     2  C   -0.372842   0.019903  -0.296170   0.004592   0.024259   0.006172
     3  C   -0.302792   0.012656  -0.321327   0.001211   0.026939   0.002101
     4  C   -0.196101  -0.012597   0.201136  -0.013917  -0.079227  -0.007695
     5  C   -1.284708   0.030773   0.801902   0.011742   0.030705   0.035436
     6  C   -1.940453  -0.033587   1.181179   0.008238  -0.110393   0.059400
     7  C   -0.062990   0.001086   0.000297  -0.009735   0.059570   0.009215
     8  N    0.030740   0.001283  -0.128359  -0.025447   0.049825  -0.004188
     9  O   -0.058594   0.000523   0.078497  -0.000054   0.000558  -0.000055
    10  O    0.004045   0.000005   0.014074  -0.000160  -0.006412  -0.000024
    11  H   -0.017262   0.000003  -0.033915  -0.002158   0.028459   0.001110
    12  H    0.002319  -0.000003  -0.002042   0.000000  -0.000001   0.000000
    13  C   -0.382342   0.037149   0.071122   0.019468  -0.041647   0.271560
    14  C    3.117717  -0.024546  -2.534272  -0.264395   0.301808   0.010046
    15  C   -1.083879   0.018764   0.373155  -0.220418  -0.010163  -0.277763
    16  H    0.036036  -0.000124   0.007676  -0.001988  -0.001315  -0.006090
    17  C   -2.048601   0.048556  -0.958744   0.037653  -0.081315   0.071944
    18  H   -0.019302  -0.004401   0.002035   0.000518   0.000350  -0.000597
    19  C   13.653184   0.303676  -2.661162  -0.000101   0.051282  -0.163041
    20  H    0.303676   0.493506  -0.086969   0.000444  -0.001594   0.000437
    21  C   -2.661162  -0.086969  10.028225  -0.036988  -0.098400   0.107476
    22  S   -0.000101   0.000444  -0.036988  15.595813  -0.124661   0.081006
    23  N    0.051282  -0.001594  -0.098400  -0.124661   7.666091  -0.175082
    24  N   -0.163041   0.000437   0.107476   0.081006  -0.175082   7.361130
    25  C   -0.005133   0.000007  -0.003987  -0.000006  -0.000008   0.000000
    26  C   -0.041890   0.000083  -0.040012  -0.000056   0.000852   0.000006
    27  C   -0.043457  -0.001858   0.012577  -0.000084  -0.001440   0.000009
    28  C   -0.060437  -0.000441  -0.043455   0.000364   0.007038   0.000048
    29  H   -0.000441   0.000000  -0.001858  -0.000002   0.000023   0.000000
    30  C   -0.000439  -0.000026   0.008540   0.000129   0.001164   0.000002
    31  H    0.000001   0.000000  -0.000006   0.000000   0.000000   0.000000
    32  C   -0.001125   0.000004  -0.004785   0.000000   0.000024   0.000000
    33  H    0.000000   0.000000   0.000000   0.000000   0.000000   0.000000
    34  S    0.000364  -0.000002  -0.000084   0.000001   0.000005   0.000000
    35  N    0.000048   0.000000   0.000009   0.000000   0.000000   0.000000
    36  N    0.007038   0.000023  -0.001441   0.000005  -0.000003   0.000000
             25         26         27         28         29         30
     1  N   -0.025554   0.005153  -0.128362   0.030739   0.001283   0.055979
     2  C   -0.069548   0.169518   0.000299  -0.062994   0.001086   0.035018
     3  C   -0.919442  -0.825062   1.181190  -1.940416  -0.033587  -0.642730
     4  C   -0.510315   0.082761   0.801907  -1.284708   0.030774  -0.283104
     5  C    0.056487  -0.210884   0.201136  -0.196090  -0.012597   0.026125
     6  C   -0.107254  -0.117332  -0.321328  -0.302788   0.012656   0.078561
     7  C   -0.172691  -0.091689  -0.296174  -0.372834   0.019903   0.289771
     8  N   -0.000431   0.025927  -0.080614   0.087501   0.002829   0.029578
     9  O    0.000681   0.001340   0.014075   0.004045   0.000005   0.000497
    10  O   -0.000765  -0.000321   0.078497  -0.058593   0.000523  -0.113640
    11  H   -0.000020   0.000142  -0.002042   0.002319  -0.000003   0.000363
    12  H   -0.007725   0.014274  -0.033915  -0.017262   0.000003  -0.002024
    13  C   -0.002840  -0.017187  -0.040012  -0.041888   0.000083  -0.000649
    14  C   -0.000112  -0.002840  -0.003987  -0.005132   0.000007   0.000083
    15  C   -0.000054  -0.000118  -0.004785  -0.001125   0.000004   0.000019
    16  H    0.000000   0.000000   0.000000   0.000000   0.000000   0.000000
    17  C    0.000083  -0.000649   0.008540  -0.000439  -0.000026  -0.000148
    18  H    0.000000  -0.000001  -0.000006   0.000001   0.000000   0.000000
    19  C   -0.005133  -0.041890  -0.043457  -0.060437  -0.000441  -0.000439
    20  H    0.000007   0.000083  -0.001858  -0.000441   0.000000  -0.000026
    21  C   -0.003987  -0.040012   0.012577  -0.043455  -0.001858   0.008540
    22  S   -0.000006  -0.000056  -0.000084   0.000364  -0.000002   0.000129
    23  N   -0.000008   0.000852  -0.001440   0.007038   0.000023   0.001164
    24  N    0.000000   0.000006   0.000009   0.000048   0.000000   0.000002
    25  C   11.027596  -1.368653  -2.534291   3.117707  -0.024546  -0.903528
    26  C   -1.368653   8.127944   0.071129  -0.382337   0.037149   1.307457
    27  C   -2.534291   0.071129  10.028175  -2.661103  -0.086969  -0.958759
    28  C    3.117707  -0.382337  -2.661103  13.653067   0.303676  -2.048579
    29  H   -0.024546   0.037149  -0.086969   0.303676   0.493506   0.048555
    30  C   -0.903528   1.307457  -0.958759  -2.048579   0.048555   8.800557
    31  H   -0.001631  -0.001507   0.002034  -0.019301  -0.004401   0.354499
    32  C   -1.693405  -1.357584   0.373170  -1.083904   0.018764   0.272827
    33  H    0.060943   0.004964   0.007676   0.036036  -0.000124  -0.052028
    34  S   -0.264398   0.019471  -0.036987  -0.000102   0.000444   0.037652
    35  N    0.010047   0.271553   0.107476  -0.163038   0.000437   0.071943
    36  N    0.301815  -0.041652  -0.098402   0.051282  -0.001594  -0.081315
             31         32         33         34         35         36
     1  N    0.000029   0.042629   0.000042  -0.025447  -0.004188   0.049826
     2  C   -0.000026  -0.020809   0.000036  -0.009735   0.009215   0.059570
     3  C   -0.004946  -0.249394   0.002402   0.008241   0.059399  -0.110394
     4  C   -0.001298   0.020456   0.000032   0.011742   0.035436   0.030706
     5  C   -0.000358  -0.066410   0.000054  -0.013917  -0.007695  -0.079227
     6  C   -0.000105  -0.010831  -0.000009   0.001211   0.002101   0.026939
     7  C   -0.002057  -0.032891  -0.000071   0.004592   0.006172   0.024259
     8  N   -0.000005   0.003060   0.000000   0.000178   0.000071  -0.001342
     9  O    0.000000   0.000207   0.000000  -0.000160  -0.000024  -0.006412
    10  O    0.000199  -0.003356   0.000006  -0.000054  -0.000055   0.000558
    11  H    0.000000   0.000010   0.000000   0.000000   0.000000  -0.000001
    12  H    0.000000   0.001157   0.000000  -0.002158   0.001110   0.028459
    13  C   -0.000001  -0.000118   0.000000  -0.000056   0.000006   0.000852
    14  C    0.000000  -0.000054   0.000000  -0.000006   0.000000  -0.000008
    15  C    0.000000   0.000000   0.000000   0.000000   0.000000   0.000024
    16  H    0.000000   0.000000   0.000000   0.000000   0.000000   0.000000
    17  C    0.000000   0.000019   0.000000   0.000129   0.000002   0.001164
    18  H    0.000000   0.000000   0.000000   0.000000   0.000000   0.000000
    19  C    0.000001  -0.001125   0.000000   0.000364   0.000048   0.007038
    20  H    0.000000   0.000004   0.000000  -0.000002   0.000000   0.000023
    21  C   -0.000006  -0.004785   0.000000  -0.000084   0.000009  -0.001441
    22  S    0.000000   0.000000   0.000000   0.000001   0.000000   0.000005
    23  N    0.000000   0.000024   0.000000   0.000005   0.000000  -0.000003
    24  N    0.000000   0.000000   0.000000   0.000000   0.000000   0.000000
    25  C   -0.001631  -1.693405   0.060943  -0.264398   0.010047   0.301815
    26  C   -0.001507  -1.357584   0.004964   0.019471   0.271553  -0.041652
    27  C    0.002034   0.373170   0.007676  -0.036987   0.107476  -0.098402
    28  C   -0.019301  -1.083904   0.036036  -0.000102  -0.163038   0.051282
    29  H   -0.004401   0.018764  -0.000124   0.000444   0.000437  -0.001594
    30  C    0.354499   0.272827  -0.052028   0.037652   0.071943  -0.081315
    31  H    0.527858  -0.001808  -0.003566   0.000518  -0.000597   0.000350
    32  C   -0.001808  10.747471   0.269744  -0.220417  -0.277757  -0.010162
    33  H   -0.003566   0.269744   0.519239  -0.001988  -0.006090  -0.001315
    34  S    0.000518  -0.220417  -0.001988  15.595813   0.081007  -0.124661
    35  N   -0.000597  -0.277757  -0.006090   0.081007   7.361126  -0.175079
    36  N    0.000350  -0.010162  -0.001315  -0.124661  -0.175079   7.666088
 Mulliken atomic charges:
              1
     1  N   -0.482502
     2  C    0.633048
     3  C    0.665720
     4  C   -0.429953
     5  C   -0.429957
     6  C    0.665722
     7  C    0.633046
     8  N   -0.482500
     9  O   -0.548258
    10  O   -0.548257
    11  H    0.353381
    12  H    0.353381
    13  C    0.360044
    14  C    0.040970
    15  C   -0.714731
    16  H    0.164016
    17  C   -0.332350
    18  H    0.156126
    19  C   -0.546863
    20  H    0.194439
    21  C    0.446689
    22  S    0.938809
    23  N   -0.515953
    24  N   -0.382636
    25  C    0.040971
    26  C    0.360051
    27  C    0.446686
    28  C   -0.546857
    29  H    0.194438
    30  C   -0.332351
    31  H    0.156125
    32  C   -0.714732
    33  H    0.164016
    34  S    0.938806
    35  N   -0.382636
    36  N   -0.515951
 Sum of Mulliken atomic charges =   0.00000
 Mulliken charges with hydrogens summed into heavy atoms:
              1
     1  N   -0.129121
     2  C    0.633048
     3  C    0.665720
     4  C   -0.429953
     5  C   -0.429957
     6  C    0.665722
     7  C    0.633046
     8  N   -0.129119
     9  O   -0.548258
    10  O   -0.548257
    13  C    0.360044
    14  C    0.040970
    15  C   -0.550715
    17  C   -0.176225
    19  C   -0.352424
    21  C    0.446689
    22  S    0.938809
    23  N   -0.515953
    24  N   -0.382636
    25  C    0.040971
    26  C    0.360051
    27  C    0.446686
    28  C   -0.352418
    30  C   -0.176226
    32  C   -0.550715
    34  S    0.938806
    35  N   -0.382636
    36  N   -0.515951
 Sum of Mulliken charges with hydrogens summed into heavy atoms =   0.00000
 Electronic spatial extent (au):  <R**2>=          15765.5792
 Charge=              0.0000 electrons
 Dipole moment (field-independent basis, Debye):
    X=              0.0000    Y=              0.0000    Z=              0.0000  Tot=              0.0000
 Quadrupole moment (field-independent basis, Debye-Ang):
   XX=           -151.3157   YY=           -175.5241   ZZ=           -174.9264
   XY=             -5.3448   XZ=              0.0000   YZ=              0.0001
 Traceless Quadrupole moment (field-independent basis, Debye-Ang):
   XX=             15.9397   YY=             -8.2687   ZZ=             -7.6710
   XY=             -5.3448   XZ=              0.0000   YZ=              0.0001
 Octapole moment (field-independent basis, Debye-Ang**2):
  XXX=              0.0023  YYY=              0.0000  ZZZ=             -0.0002  XYY=              0.0000
  XXY=              0.0003  XXZ=              0.0006  XZZ=              0.0001  YZZ=              0.0000
  YYZ=              0.0004  XYZ=             -0.0004
 Hexadecapole moment (field-independent basis, Debye-Ang**3):
 XXXX=         -19096.9719 YYYY=          -3098.0590 ZZZZ=           -196.0467 XXXY=             47.1419
 XXXZ=              0.0660 YYYX=            -60.4123 YYYZ=              0.0206 ZZZX=              0.0580
 ZZZY=              0.0194 XXYY=          -2966.4107 XXZZ=          -3201.3965 YYZZ=           -563.9093
 XXYZ=             -0.0021 YYXZ=              0.0181 ZZXY=             68.2501
 N-N= 2.629172432474D+03 E-N=-9.866670403362D+03  KE= 1.952103152795D+03
 1\1\GINC-DLT16\SP\RTD-CAM-B3LYP-FC\6-31+G(d,p)\C18H8N6O2S2\NATHALIA.RO
 SA\06-Sep-2023\0\\# td=(nstates=10) cam-b3lyp/6-31+g(d,p) geom=connect
 ivity\\Energy:\\0,1\N,0,-1.605204,-1.391513,0.000026\C,0,-0.249917,-1.
 797763,0.000014\C,0,-1.756051,-0.013494,0.000005\C,0,-0.475275,0.53181
 8,-0.000008\C,0,0.475273,-0.531815,0.\C,0,1.756051,0.013494,-0.000014\
 C,0,0.249917,1.797766,-0.000037\N,0,1.605206,1.391514,-0.000039\O,0,0.
 116446,-2.971104,0.000039\O,0,-0.116446,2.971106,-0.00005\H,0,2.38599,
 2.038521,-0.000062\H,0,-2.38598,-2.038528,0.00004\C,0,4.289577,0.10919
 7,-0.00003\C,0,5.563126,-0.588845,-0.000022\C,0,5.610937,-2.011041,0.0
 00005\H,0,6.569487,-2.517654,0.000014\C,0,4.415952,-2.690946,0.000019\
 H,0,4.4142,-3.776432,0.000034\C,0,3.159684,-2.021145,0.000014\H,0,2.25
 0843,-2.617916,0.000025\C,0,3.053434,-0.634223,-0.00001\S,0,6.038154,1
 .763993,-0.000062\N,0,4.42189,1.441622,-0.000057\N,0,6.622069,0.232731
 ,-0.000044\C,0,-5.563127,0.588845,0.000035\C,0,-4.289578,-0.109199,0.0
 00028\C,0,-3.053432,0.634223,0.00001\C,0,-3.159683,2.021144,-0.000002\
 H,0,-2.250843,2.617916,-0.00002\C,0,-4.415951,2.690945,0.000005\H,0,-4
 .4142,3.776431,-0.000004\C,0,-5.610936,2.011041,0.000024\H,0,-6.569485
 ,2.517657,0.000026\S,0,-6.038155,-1.763995,0.00006\N,0,-6.622071,-0.23
 273,0.000053\N,0,-4.42189,-1.441623,0.00004\\Version=EM64L-G09RevA.02\
 State=1-A\HF=-1965.538442\RMSD=3.201e-09\PG=C01 [X(C18H8N6O2S2)]\\@


 I WANT IT ALL - RICH, THIN, AND CHOCOLATE.
 Job cpu time:  0 days  3 hours 23 minutes 29.8 seconds.
 File lengths (MBytes):  RWF=    762 Int=      0 D2E=      0 Chk=    119 Scr=      1
 Normal termination of Gaussian 09 at Wed Sep  6 15:08:36 2023.
