 Entering Link 1 = C:\G09W\l1.exe PID=     22456.
  
 Copyright (c) 1988,1990,1992,1993,1995,1998,2003,2009,2010,
            Gaussian, Inc.  All Rights Reserved.
  
 This is part of the Gaussian(R) 09 program.  It is based on
 the Gaussian(R) 03 system (copyright 2003, Gaussian, Inc.),
 the Gaussian(R) 98 system (copyright 1998, Gaussian, Inc.),
 the Gaussian(R) 94 system (copyright 1995, Gaussian, Inc.),
 the Gaussian 92(TM) system (copyright 1992, Gaussian, Inc.),
 the Gaussian 90(TM) system (copyright 1990, Gaussian, Inc.),
 the Gaussian 88(TM) system (copyright 1988, Gaussian, Inc.),
 the Gaussian 86(TM) system (copyright 1986, Carnegie Mellon
 University), and the Gaussian 82(TM) system (copyright 1983,
 Carnegie Mellon University). Gaussian is a federally registered
 trademark of Gaussian, Inc.
  
 This software contains proprietary and confidential information,
 including trade secrets, belonging to Gaussian, Inc.
  
 This software is provided under written license and may be
 used, copied, transmitted, or stored only in accord with that
 written license.
  
 The following legend is applicable only to US Government
 contracts under FAR:
  
                    RESTRICTED RIGHTS LEGEND
  
 Use, reproduction and disclosure by the US Government is
 subject to restrictions as set forth in subparagraphs (a)
 and (c) of the Commercial Computer Software - Restricted
 Rights clause in FAR 52.227-19.
  
 Gaussian, Inc.
 340 Quinnipiac St., Bldg. 40, Wallingford CT 06492
  
  
 ---------------------------------------------------------------
 Warning -- This program may not be used in any manner that
 competes with the business of Gaussian, Inc. or will provide
 assistance to any competitor of Gaussian, Inc.  The licensee
 of this program is prohibited from giving any competitor of
 Gaussian, Inc. access to this program.  By using this program,
 the user acknowledges that Gaussian, Inc. is engaged in the
 business of creating and licensing software in the field of
 computational chemistry and represents and warrants to the
 licensee that it is not a competitor of Gaussian, Inc. and that
 it will not use this program in any manner prohibited above.
 ---------------------------------------------------------------
  

 Cite this work as:
 Gaussian 09, Revision B.01,
 M. J. Frisch, G. W. Trucks, H. B. Schlegel, G. E. Scuseria, 
 M. A. Robb, J. R. Cheeseman, G. Scalmani, V. Barone, B. Mennucci, 
 G. A. Petersson, H. Nakatsuji, M. Caricato, X. Li, H. P. Hratchian, 
 A. F. Izmaylov, J. Bloino, G. Zheng, J. L. Sonnenberg, M. Hada, 
 M. Ehara, K. Toyota, R. Fukuda, J. Hasegawa, M. Ishida, T. Nakajima, 
 Y. Honda, O. Kitao, H. Nakai, T. Vreven, J. A. Montgomery, Jr., 
 J. E. Peralta, F. Ogliaro, M. Bearpark, J. J. Heyd, E. Brothers, 
 K. N. Kudin, V. N. Staroverov, T. Keith, R. Kobayashi, J. Normand, 
 K. Raghavachari, A. Rendell, J. C. Burant, S. S. Iyengar, J. Tomasi, 
 M. Cossi, N. Rega, J. M. Millam, M. Klene, J. E. Knox, J. B. Cross, 
 V. Bakken, C. Adamo, J. Jaramillo, R. Gomperts, R. E. Stratmann, 
 O. Yazyev, A. J. Austin, R. Cammi, C. Pomelli, J. W. Ochterski, 
 R. L. Martin, K. Morokuma, V. G. Zakrzewski, G. A. Voth, 
 P. Salvador, J. J. Dannenberg, S. Dapprich, A. D. Daniels, 
 O. Farkas, J. B. Foresman, J. V. Ortiz, J. Cioslowski, 
 and D. J. Fox, Gaussian, Inc., Wallingford CT, 2010.
 
 ******************************************
 Gaussian 09:  IA32W-G09RevB.01 12-Aug-2010
                25-Sep-2023 
 ******************************************
 %nprocshared=6
 Will use up to    6 processors via shared memory.
 %chk=G:\Meu Drive\POS-DOC-IME\SUBSTITUINTES-DOADORES\DPP-substituido\DPP-SUB-6\D
 PP-SUB-6-CATION.chk
 ----------------------------------------------------
 # opt=tight freq b3lyp/6-31+g(d,p) geom=connectivity
 ----------------------------------------------------
 1/7=10,14=-1,18=20,19=15,26=3,38=1,57=2/1,3;
 2/9=110,12=2,17=6,18=5,40=1/2;
 3/5=1,6=6,7=111,11=2,16=1,25=1,30=1,71=1,74=-5/1,2,3;
 4//1;
 5/5=2,38=5/2;
 6/7=2,8=2,9=2,10=2,28=1/1;
 7//1,2,3,16;
 1/7=10,14=-1,18=20,19=15/3(2);
 2/9=110/2;
 99//99;
 2/9=110/2;
 3/5=1,6=6,7=111,11=2,16=1,25=1,30=1,71=1,74=-5/1,2,3;
 4/5=5,16=3/1;
 5/5=2,38=5/2;
 7//1,2,3,16;
 1/7=10,14=-1,18=20,19=15/3(-5);
 2/9=110/2;
 6/7=2,8=2,9=2,10=2,19=2,28=1/1;
 99/9=1/99;
 -------
 Energy:
 -------
 Symbolic Z-matrix:
 Charge =  1 Multiplicity = 2
 N                    -1.6052   -1.39151   0.00003 
 C                    -0.24992  -1.79776   0.00001 
 C                    -1.75605  -0.01349   0.00001 
 C                    -0.47528   0.53182  -0.00001 
 C                     0.47527  -0.53182   0. 
 C                     1.75605   0.01349  -0.00001 
 C                     0.24992   1.79777  -0.00004 
 N                     1.60521   1.39151  -0.00004 
 O                     0.11645  -2.9711    0.00004 
 O                    -0.11645   2.97111  -0.00005 
 H                     2.38599   2.03852  -0.00006 
 H                    -2.38598  -2.03853   0.00004 
 C                     4.28958   0.1092   -0.00003 
 C                     5.56313  -0.58885  -0.00002 
 C                     5.61094  -2.01104   0.00001 
 H                     6.56949  -2.51765   0.00001 
 C                     4.41595  -2.69095   0.00002 
 H                     4.4142   -3.77643   0.00003 
 C                     3.15968  -2.02115   0.00001 
 H                     2.25084  -2.61792   0.00003 
 C                     3.05343  -0.63422  -0.00001 
 S                     6.03815   1.76399  -0.00006 
 N                     4.42189   1.44162  -0.00006 
 N                     6.62207   0.23273  -0.00004 
 C                    -5.56313   0.58885   0.00004 
 C                    -4.28958  -0.1092    0.00003 
 C                    -3.05343   0.63422   0.00001 
 C                    -3.15968   2.02114  0. 
 H                    -2.25084   2.61792  -0.00002 
 C                    -4.41595   2.69095   0.00001 
 H                    -4.4142    3.77643  0. 
 C                    -5.61094   2.01104   0.00002 
 H                    -6.56949   2.51766   0.00003 
 S                    -6.03815  -1.764     0.00006 
 N                    -6.62207  -0.23273   0.00005 
 N                    -4.42189  -1.44162   0.00004 
 

 GradGradGradGradGradGradGradGradGradGradGradGradGradGradGradGradGradGrad
 Berny optimization.
 Initialization pass.
                           ----------------------------
                           !    Initial Parameters    !
                           ! (Angstroms and Degrees)  !
 --------------------------                            --------------------------
 ! Name  Definition              Value          Derivative Info.                !
 --------------------------------------------------------------------------------
 ! R1    R(1,2)                  1.4149         estimate D2E/DX2                !
 ! R2    R(1,3)                  1.3863         estimate D2E/DX2                !
 ! R3    R(1,12)                 1.014          estimate D2E/DX2                !
 ! R4    R(2,5)                  1.4589         estimate D2E/DX2                !
 ! R5    R(2,9)                  1.2292         estimate D2E/DX2                !
 ! R6    R(3,4)                  1.392          estimate D2E/DX2                !
 ! R7    R(3,27)                 1.4501         estimate D2E/DX2                !
 ! R8    R(4,5)                  1.4265         estimate D2E/DX2                !
 ! R9    R(4,7)                  1.4589         estimate D2E/DX2                !
 ! R10   R(5,6)                  1.392          estimate D2E/DX2                !
 ! R11   R(6,8)                  1.3863         estimate D2E/DX2                !
 ! R12   R(6,21)                 1.4501         estimate D2E/DX2                !
 ! R13   R(7,8)                  1.4149         estimate D2E/DX2                !
 ! R14   R(7,10)                 1.2292         estimate D2E/DX2                !
 ! R15   R(8,11)                 1.014          estimate D2E/DX2                !
 ! R16   R(13,14)                1.4523         estimate D2E/DX2                !
 ! R17   R(13,21)                1.4425         estimate D2E/DX2                !
 ! R18   R(13,23)                1.339          estimate D2E/DX2                !
 ! R19   R(14,15)                1.423          estimate D2E/DX2                !
 ! R20   R(14,24)                1.3403         estimate D2E/DX2                !
 ! R21   R(15,16)                1.0842         estimate D2E/DX2                !
 ! R22   R(15,17)                1.3749         estimate D2E/DX2                !
 ! R23   R(17,18)                1.0855         estimate D2E/DX2                !
 ! R24   R(17,19)                1.4237         estimate D2E/DX2                !
 ! R25   R(19,20)                1.0873         estimate D2E/DX2                !
 ! R26   R(19,21)                1.391          estimate D2E/DX2                !
 ! R27   R(22,23)                1.6481         estimate D2E/DX2                !
 ! R28   R(22,24)                1.6388         estimate D2E/DX2                !
 ! R29   R(25,26)                1.4523         estimate D2E/DX2                !
 ! R30   R(25,32)                1.423          estimate D2E/DX2                !
 ! R31   R(25,35)                1.3403         estimate D2E/DX2                !
 ! R32   R(26,27)                1.4425         estimate D2E/DX2                !
 ! R33   R(26,36)                1.339          estimate D2E/DX2                !
 ! R34   R(27,28)                1.391          estimate D2E/DX2                !
 ! R35   R(28,29)                1.0873         estimate D2E/DX2                !
 ! R36   R(28,30)                1.4237         estimate D2E/DX2                !
 ! R37   R(30,31)                1.0855         estimate D2E/DX2                !
 ! R38   R(30,32)                1.3749         estimate D2E/DX2                !
 ! R39   R(32,33)                1.0842         estimate D2E/DX2                !
 ! R40   R(34,35)                1.6388         estimate D2E/DX2                !
 ! R41   R(34,36)                1.6481         estimate D2E/DX2                !
 ! A1    A(2,1,3)              112.9333         estimate D2E/DX2                !
 ! A2    A(2,1,12)             123.6659         estimate D2E/DX2                !
 ! A3    A(3,1,12)             123.4008         estimate D2E/DX2                !
 ! A4    A(1,2,5)              103.1197         estimate D2E/DX2                !
 ! A5    A(1,2,9)              124.0266         estimate D2E/DX2                !
 ! A6    A(5,2,9)              132.8536         estimate D2E/DX2                !
 ! A7    A(1,3,4)              106.8156         estimate D2E/DX2                !
 ! A8    A(1,3,27)             122.7777         estimate D2E/DX2                !
 ! A9    A(4,3,27)             130.4067         estimate D2E/DX2                !
 ! A10   A(3,4,5)              108.7238         estimate D2E/DX2                !
 ! A11   A(3,4,7)              142.8687         estimate D2E/DX2                !
 ! A12   A(5,4,7)              108.4074         estimate D2E/DX2                !
 ! A13   A(2,5,4)              108.4075         estimate D2E/DX2                !
 ! A14   A(2,5,6)              142.8685         estimate D2E/DX2                !
 ! A15   A(4,5,6)              108.724          estimate D2E/DX2                !
 ! A16   A(5,6,8)              106.8155         estimate D2E/DX2                !
 ! A17   A(5,6,21)             130.4068         estimate D2E/DX2                !
 ! A18   A(8,6,21)             122.7776         estimate D2E/DX2                !
 ! A19   A(4,7,8)              103.1198         estimate D2E/DX2                !
 ! A20   A(4,7,10)             132.8536         estimate D2E/DX2                !
 ! A21   A(8,7,10)             124.0267         estimate D2E/DX2                !
 ! A22   A(6,8,7)              112.9333         estimate D2E/DX2                !
 ! A23   A(6,8,11)             123.4003         estimate D2E/DX2                !
 ! A24   A(7,8,11)             123.6664         estimate D2E/DX2                !
 ! A25   A(14,13,21)           120.2497         estimate D2E/DX2                !
 ! A26   A(14,13,23)           113.0565         estimate D2E/DX2                !
 ! A27   A(21,13,23)           126.6938         estimate D2E/DX2                !
 ! A28   A(13,14,15)           120.6529         estimate D2E/DX2                !
 ! A29   A(13,14,24)           113.4666         estimate D2E/DX2                !
 ! A30   A(15,14,24)           125.8805         estimate D2E/DX2                !
 ! A31   A(14,15,16)           119.7828         estimate D2E/DX2                !
 ! A32   A(14,15,17)           117.7129         estimate D2E/DX2                !
 ! A33   A(16,15,17)           122.5043         estimate D2E/DX2                !
 ! A34   A(15,17,18)           119.7309         estimate D2E/DX2                !
 ! A35   A(15,17,19)           122.2965         estimate D2E/DX2                !
 ! A36   A(18,17,19)           117.9726         estimate D2E/DX2                !
 ! A37   A(17,19,20)           118.6449         estimate D2E/DX2                !
 ! A38   A(17,19,21)           122.4459         estimate D2E/DX2                !
 ! A39   A(20,19,21)           118.9093         estimate D2E/DX2                !
 ! A40   A(6,21,13)            122.4466         estimate D2E/DX2                !
 ! A41   A(6,21,19)            120.9114         estimate D2E/DX2                !
 ! A42   A(13,21,19)           116.642          estimate D2E/DX2                !
 ! A43   A(23,22,24)            99.5934         estimate D2E/DX2                !
 ! A44   A(13,23,22)           106.9509         estimate D2E/DX2                !
 ! A45   A(14,24,22)           106.9326         estimate D2E/DX2                !
 ! A46   A(26,25,32)           120.6529         estimate D2E/DX2                !
 ! A47   A(26,25,35)           113.4666         estimate D2E/DX2                !
 ! A48   A(32,25,35)           125.8805         estimate D2E/DX2                !
 ! A49   A(25,26,27)           120.2496         estimate D2E/DX2                !
 ! A50   A(25,26,36)           113.0566         estimate D2E/DX2                !
 ! A51   A(27,26,36)           126.6938         estimate D2E/DX2                !
 ! A52   A(3,27,26)            122.4465         estimate D2E/DX2                !
 ! A53   A(3,27,28)            120.9115         estimate D2E/DX2                !
 ! A54   A(26,27,28)           116.642          estimate D2E/DX2                !
 ! A55   A(27,28,29)           118.9093         estimate D2E/DX2                !
 ! A56   A(27,28,30)           122.4459         estimate D2E/DX2                !
 ! A57   A(29,28,30)           118.6448         estimate D2E/DX2                !
 ! A58   A(28,30,31)           117.9727         estimate D2E/DX2                !
 ! A59   A(28,30,32)           122.2966         estimate D2E/DX2                !
 ! A60   A(31,30,32)           119.7308         estimate D2E/DX2                !
 ! A61   A(25,32,30)           117.713          estimate D2E/DX2                !
 ! A62   A(25,32,33)           119.7829         estimate D2E/DX2                !
 ! A63   A(30,32,33)           122.5041         estimate D2E/DX2                !
 ! A64   A(35,34,36)            99.5934         estimate D2E/DX2                !
 ! A65   A(25,35,34)           106.9326         estimate D2E/DX2                !
 ! A66   A(26,36,34)           106.9509         estimate D2E/DX2                !
 ! D1    D(3,1,2,5)              0.0007         estimate D2E/DX2                !
 ! D2    D(3,1,2,9)            179.9994         estimate D2E/DX2                !
 ! D3    D(12,1,2,5)          -179.9998         estimate D2E/DX2                !
 ! D4    D(12,1,2,9)            -0.0011         estimate D2E/DX2                !
 ! D5    D(2,1,3,4)             -0.0006         estimate D2E/DX2                !
 ! D6    D(2,1,3,27)           179.9999         estimate D2E/DX2                !
 ! D7    D(12,1,3,4)           179.9999         estimate D2E/DX2                !
 ! D8    D(12,1,3,27)            0.0004         estimate D2E/DX2                !
 ! D9    D(1,2,5,4)             -0.0005         estimate D2E/DX2                !
 ! D10   D(1,2,5,6)            179.9999         estimate D2E/DX2                !
 ! D11   D(9,2,5,4)           -179.9991         estimate D2E/DX2                !
 ! D12   D(9,2,5,6)              0.0013         estimate D2E/DX2                !
 ! D13   D(1,3,4,5)              0.0002         estimate D2E/DX2                !
 ! D14   D(1,3,4,7)            179.9996         estimate D2E/DX2                !
 ! D15   D(27,3,4,5)           179.9997         estimate D2E/DX2                !
 ! D16   D(27,3,4,7)            -0.001          estimate D2E/DX2                !
 ! D17   D(1,3,27,26)           -0.0004         estimate D2E/DX2                !
 ! D18   D(1,3,27,28)          179.9995         estimate D2E/DX2                !
 ! D19   D(4,3,27,26)         -179.9998         estimate D2E/DX2                !
 ! D20   D(4,3,27,28)            0.0002         estimate D2E/DX2                !
 ! D21   D(3,4,5,2)              0.0002         estimate D2E/DX2                !
 ! D22   D(3,4,5,6)            180.0            estimate D2E/DX2                !
 ! D23   D(7,4,5,2)           -179.9994         estimate D2E/DX2                !
 ! D24   D(7,4,5,6)              0.0004         estimate D2E/DX2                !
 ! D25   D(3,4,7,8)           -179.9996         estimate D2E/DX2                !
 ! D26   D(3,4,7,10)             0.0008         estimate D2E/DX2                !
 ! D27   D(5,4,7,8)             -0.0002         estimate D2E/DX2                !
 ! D28   D(5,4,7,10)          -179.9998         estimate D2E/DX2                !
 ! D29   D(2,5,6,8)            179.9992         estimate D2E/DX2                !
 ! D30   D(2,5,6,21)            -0.0005         estimate D2E/DX2                !
 ! D31   D(4,5,6,8)             -0.0004         estimate D2E/DX2                !
 ! D32   D(4,5,6,21)           179.9998         estimate D2E/DX2                !
 ! D33   D(5,6,8,7)              0.0002         estimate D2E/DX2                !
 ! D34   D(5,6,8,11)          -179.9994         estimate D2E/DX2                !
 ! D35   D(21,6,8,7)          -180.0            estimate D2E/DX2                !
 ! D36   D(21,6,8,11)            0.0004         estimate D2E/DX2                !
 ! D37   D(5,6,21,13)          179.9998         estimate D2E/DX2                !
 ! D38   D(5,6,21,19)           -0.0002         estimate D2E/DX2                !
 ! D39   D(8,6,21,13)            0.0001         estimate D2E/DX2                !
 ! D40   D(8,6,21,19)         -179.9999         estimate D2E/DX2                !
 ! D41   D(4,7,8,6)              0.0            estimate D2E/DX2                !
 ! D42   D(4,7,8,11)           179.9996         estimate D2E/DX2                !
 ! D43   D(10,7,8,6)           179.9996         estimate D2E/DX2                !
 ! D44   D(10,7,8,11)           -0.0007         estimate D2E/DX2                !
 ! D45   D(21,13,14,15)          0.0            estimate D2E/DX2                !
 ! D46   D(21,13,14,24)        179.9999         estimate D2E/DX2                !
 ! D47   D(23,13,14,15)       -180.0            estimate D2E/DX2                !
 ! D48   D(23,13,14,24)          0.0            estimate D2E/DX2                !
 ! D49   D(14,13,21,6)         179.9999         estimate D2E/DX2                !
 ! D50   D(14,13,21,19)         -0.0001         estimate D2E/DX2                !
 ! D51   D(23,13,21,6)          -0.0002         estimate D2E/DX2                !
 ! D52   D(23,13,21,19)        179.9999         estimate D2E/DX2                !
 ! D53   D(14,13,23,22)         -0.0003         estimate D2E/DX2                !
 ! D54   D(21,13,23,22)        179.9997         estimate D2E/DX2                !
 ! D55   D(13,14,15,16)       -179.9998         estimate D2E/DX2                !
 ! D56   D(13,14,15,17)          0.0002         estimate D2E/DX2                !
 ! D57   D(24,14,15,16)          0.0003         estimate D2E/DX2                !
 ! D58   D(24,14,15,17)       -179.9997         estimate D2E/DX2                !
 ! D59   D(13,14,24,22)          0.0004         estimate D2E/DX2                !
 ! D60   D(15,14,24,22)       -179.9997         estimate D2E/DX2                !
 ! D61   D(14,15,17,18)        179.9997         estimate D2E/DX2                !
 ! D62   D(14,15,17,19)         -0.0003         estimate D2E/DX2                !
 ! D63   D(16,15,17,18)         -0.0004         estimate D2E/DX2                !
 ! D64   D(16,15,17,19)        179.9997         estimate D2E/DX2                !
 ! D65   D(15,17,19,20)        180.0            estimate D2E/DX2                !
 ! D66   D(15,17,19,21)          0.0002         estimate D2E/DX2                !
 ! D67   D(18,17,19,20)          0.0            estimate D2E/DX2                !
 ! D68   D(18,17,19,21)       -179.9997         estimate D2E/DX2                !
 ! D69   D(17,19,21,6)        -180.0            estimate D2E/DX2                !
 ! D70   D(17,19,21,13)          0.0            estimate D2E/DX2                !
 ! D71   D(20,19,21,6)           0.0003         estimate D2E/DX2                !
 ! D72   D(20,19,21,13)       -179.9997         estimate D2E/DX2                !
 ! D73   D(24,22,23,13)          0.0005         estimate D2E/DX2                !
 ! D74   D(23,22,24,14)         -0.0005         estimate D2E/DX2                !
 ! D75   D(32,25,26,27)          0.0            estimate D2E/DX2                !
 ! D76   D(32,25,26,36)       -180.0            estimate D2E/DX2                !
 ! D77   D(35,25,26,27)       -179.9999         estimate D2E/DX2                !
 ! D78   D(35,25,26,36)          0.0            estimate D2E/DX2                !
 ! D79   D(26,25,32,30)          0.0001         estimate D2E/DX2                !
 ! D80   D(26,25,32,33)        179.9998         estimate D2E/DX2                !
 ! D81   D(35,25,32,30)       -180.0            estimate D2E/DX2                !
 ! D82   D(35,25,32,33)         -0.0003         estimate D2E/DX2                !
 ! D83   D(26,25,35,34)          0.0            estimate D2E/DX2                !
 ! D84   D(32,25,35,34)       -180.0            estimate D2E/DX2                !
 ! D85   D(25,26,27,3)         179.9999         estimate D2E/DX2                !
 ! D86   D(25,26,27,28)         -0.0001         estimate D2E/DX2                !
 ! D87   D(36,26,27,3)          -0.0001         estimate D2E/DX2                !
 ! D88   D(36,26,27,28)        179.9999         estimate D2E/DX2                !
 ! D89   D(25,26,36,34)         -0.0001         estimate D2E/DX2                !
 ! D90   D(27,26,36,34)        179.9999         estimate D2E/DX2                !
 ! D91   D(3,27,28,29)           0.0003         estimate D2E/DX2                !
 ! D92   D(3,27,28,30)        -179.9999         estimate D2E/DX2                !
 ! D93   D(26,27,28,29)       -179.9997         estimate D2E/DX2                !
 ! D94   D(26,27,28,30)          0.0001         estimate D2E/DX2                !
 ! D95   D(27,28,30,31)        179.9999         estimate D2E/DX2                !
 ! D96   D(27,28,30,32)          0.0            estimate D2E/DX2                !
 ! D97   D(29,28,30,31)         -0.0002         estimate D2E/DX2                !
 ! D98   D(29,28,30,32)        179.9998         estimate D2E/DX2                !
 ! D99   D(28,30,32,25)         -0.0001         estimate D2E/DX2                !
 ! D100  D(28,30,32,33)       -179.9998         estimate D2E/DX2                !
 ! D101  D(31,30,32,25)        180.0            estimate D2E/DX2                !
 ! D102  D(31,30,32,33)          0.0003         estimate D2E/DX2                !
 ! D103  D(36,34,35,25)          0.0            estimate D2E/DX2                !
 ! D104  D(35,34,36,26)          0.0            estimate D2E/DX2                !
 --------------------------------------------------------------------------------
 Trust Radius=3.00D-01 FncErr=1.00D-07 GrdErr=1.00D-06
 Number of steps in this run=    216 maximum allowed number of steps=    216.
 GradGradGradGradGradGradGradGradGradGradGradGradGradGradGradGradGradGrad

                          Input orientation:                          
 ---------------------------------------------------------------------
 Center     Atomic      Atomic             Coordinates (Angstroms)
 Number     Number       Type             X           Y           Z
 ---------------------------------------------------------------------
      1          7           0       -1.605204   -1.391513    0.000026
      2          6           0       -0.249917   -1.797763    0.000014
      3          6           0       -1.756051   -0.013494    0.000005
      4          6           0       -0.475275    0.531818   -0.000008
      5          6           0        0.475273   -0.531815    0.000000
      6          6           0        1.756051    0.013494   -0.000014
      7          6           0        0.249917    1.797766   -0.000037
      8          7           0        1.605206    1.391514   -0.000039
      9          8           0        0.116446   -2.971104    0.000039
     10          8           0       -0.116446    2.971106   -0.000050
     11          1           0        2.385990    2.038521   -0.000062
     12          1           0       -2.385980   -2.038528    0.000040
     13          6           0        4.289577    0.109197   -0.000030
     14          6           0        5.563126   -0.588845   -0.000022
     15          6           0        5.610937   -2.011041    0.000005
     16          1           0        6.569487   -2.517654    0.000014
     17          6           0        4.415952   -2.690946    0.000019
     18          1           0        4.414200   -3.776432    0.000034
     19          6           0        3.159684   -2.021145    0.000014
     20          1           0        2.250843   -2.617916    0.000025
     21          6           0        3.053434   -0.634223   -0.000010
     22         16           0        6.038154    1.763993   -0.000062
     23          7           0        4.421890    1.441622   -0.000057
     24          7           0        6.622069    0.232731   -0.000044
     25          6           0       -5.563127    0.588845    0.000035
     26          6           0       -4.289578   -0.109199    0.000028
     27          6           0       -3.053432    0.634223    0.000010
     28          6           0       -3.159683    2.021144   -0.000002
     29          1           0       -2.250843    2.617916   -0.000020
     30          6           0       -4.415951    2.690945    0.000005
     31          1           0       -4.414200    3.776431   -0.000004
     32          6           0       -5.610936    2.011041    0.000024
     33          1           0       -6.569485    2.517657    0.000026
     34         16           0       -6.038155   -1.763995    0.000060
     35          7           0       -6.622071   -0.232730    0.000053
     36          7           0       -4.421890   -1.441623    0.000040
 ---------------------------------------------------------------------
                    Distance matrix (angstroms):
                    1          2          3          4          5
     1  N    0.000000
     2  C    1.414865   0.000000
     3  C    1.386251   2.334964   0.000000
     4  C    2.230682   2.340456   1.392032   0.000000
     5  C    2.251103   1.458946   2.290734   1.426484   0.000000
     6  C    3.643087   2.702695   3.512206   2.290737   1.392032
     7  C    3.689576   3.630105   2.702697   1.458947   2.340456
     8  N    4.248761   3.689576   3.643089   2.251106   2.230682
     9  O    2.336490   1.229207   3.500529   3.552548   2.465540
    10  O    4.609647   4.770736   3.405311   2.465539   3.552547
    11  H    5.262581   4.654576   4.622474   3.233727   3.202728
    12  H    1.014021   2.149589   2.120748   3.202729   3.233721
    13  C    6.082810   4.923769   6.046873   4.783558   3.867792
    14  C    7.213129   5.937420   7.341756   6.141512   5.088173
    15  C    7.242686   5.864733   7.633001   6.596068   5.344451
    16  H    8.251895   6.857296   8.693986   7.676454   6.409602
    17  C    6.159776   4.750590   6.727731   5.857500   4.493417
    18  H    6.474648   5.066470   7.227150   6.516746   5.103203
    19  C    4.806308   3.416911   5.309907   4.441908   3.069880
    20  H    4.046377   2.631815   4.778934   4.165638   2.739428
    21  C    4.719788   3.502278   4.849376   3.716374   2.580194
    22  S    8.269108   7.226752   7.994316   6.628953   6.018005
    23  N    6.659768   5.685015   6.346993   4.980961   4.412509
    24  N    8.386071   7.165689   8.381737   7.103643   6.194161
    25  C    4.425717   5.824611   3.854431   5.088172   6.141511
    26  C    2.974927   4.378368   2.535334   3.867791   4.783556
    27  C    2.490175   3.711368   1.450081   2.580190   3.716370
    28  C    3.750018   4.801124   2.471828   3.069876   4.441903
    29  H    4.061080   4.847878   2.677525   2.739424   4.165635
    30  C    4.956487   6.124079   3.793291   4.493413   5.857496
    31  H    5.882015   6.957937   4.629178   5.103199   6.516742
    32  C    5.255784   6.576284   4.354180   5.344447   6.596064
    33  H    6.318678   7.652437   5.438370   6.409598   7.676451
    34  S    4.448573   5.788336   4.626086   6.018006   6.628953
    35  N    5.148955   6.561530   4.870956   6.194161   7.103643
    36  N    2.817132   4.187146   3.024277   4.412509   4.980959
                    6          7          8          9         10
     6  C    0.000000
     7  C    2.334966   0.000000
     8  N    1.386252   1.414867   0.000000
     9  O    3.405309   4.770737   4.609647   0.000000
    10  O    3.500530   1.229206   2.336492   5.946772   0.000000
    11  H    2.120745   2.149598   1.014023   5.499743   2.670562
    12  H    4.622469   4.654579   5.262581   2.670549   5.499747
    13  C    2.535333   4.378369   2.974926   5.186837   5.253909
    14  C    3.854430   5.824612   4.425715   5.944870   6.703043
    15  C    4.354181   6.576287   5.255784   5.577737   7.591094
    16  H    5.438371   7.652438   6.318677   6.468953   8.650329
    17  C    3.793293   6.124082   4.956488   4.308624   7.252687
    18  H    4.629179   6.957941   5.882016   4.372556   8.127486
    19  C    2.471830   4.801127   3.750019   3.188059   5.971231
    20  H    2.677525   4.847881   4.061081   2.163421   6.069697
    21  C    1.450083   3.711371   2.490176   3.753253   4.800681
    22  S    4.626084   5.788336   4.448569   7.582069   6.271860
    23  N    3.024276   4.187147   2.817130   6.165144   4.789135
    24  N    4.870954   6.561528   5.148951   7.251737   7.273670
    25  C    7.341757   5.937421   7.213132   6.703043   5.944872
    26  C    6.046874   4.923772   6.082813   5.253908   5.186840
    27  C    4.849374   3.502277   4.719788   4.800678   3.753253
    28  C    5.309906   3.416909   4.806308   5.971228   3.188059
    29  H    4.778934   2.631814   4.046378   6.069695   2.163422
    30  C    6.727730   4.750589   6.159777   7.252684   4.308623
    31  H    7.227150   5.066468   6.474649   8.127483   4.372555
    32  C    7.633000   5.864732   7.242687   7.591092   5.577737
    33  H    8.693985   6.857294   8.251895   8.650328   6.468951
    34  S    7.994318   7.226755   8.269111   6.271860   7.582072
    35  N    8.381739   7.165691   8.386075   7.273672   7.251739
    36  N    6.346993   5.685017   6.659771   4.789134   6.165146
                   11         12         13         14         15
    11  H    0.000000
    12  H    6.276466   0.000000
    13  C    2.710338   7.012545   0.000000
    14  C    4.122772   8.080215   1.452305   0.000000
    15  C    5.176798   7.996964   2.498280   1.422999   0.000000
    16  H    6.185497   8.968275   3.478266   2.175561   1.084193
    17  C    5.146708   6.833149   2.802993   2.394752   1.374867
    18  H    6.158516   7.018743   3.887627   3.388324   2.132788
    19  C    4.132734   5.545691   2.411434   2.797859   2.451274
    20  H    4.658398   4.672881   3.404935   3.884372   3.414459
    21  C    2.754822   5.617766   1.442471   2.510102   2.904557
    22  S    3.662467   9.242575   2.407462   2.400312   3.799131
    23  N    2.121598   7.645818   1.338978   2.329209   3.651673
    24  N    4.604915   9.289971   2.335761   1.340279   2.461077
    25  C    8.080224   4.122784   9.864372  11.188407  11.472537
    26  C    7.012554   2.710350   8.581934   9.864372  10.081528
    27  C    5.617772   2.754830   7.361755   8.702929   9.059178
    28  C    5.545700   4.132742   7.690710   9.104913   9.653097
    29  H    4.672892   4.658405   7.005053   8.446385   9.123312
    30  C    6.833159   5.146717   9.080289  10.504237  11.074618
    31  H    7.018755   6.158525   9.444805  10.890485  11.575759
    32  C    7.996973   5.176809  10.081526  11.472535  11.920888
    33  H    8.968283   6.185510  11.122945  12.524001  12.995068
    34  S    9.242583   3.662479  10.496232  11.660647  11.651711
    35  N    9.289981   4.604929  10.917004  12.190400  12.361589
    36  N    7.645825   2.121609   8.848429  10.021366  10.048973
                   16         17         18         19         20
    16  H    0.000000
    17  C    2.160496   0.000000
    18  H    2.495954   1.085487   0.000000
    19  C    3.445762   1.423672   2.157508   0.000000
    20  H    4.319808   2.166340   2.454032   1.087257   0.000000
    21  C    3.988727   2.467096   3.424202   1.390986   2.139904
    22  S    4.314489   4.741099   5.773520   4.755298   5.791792
    23  N    4.504225   4.132572   5.218060   3.685637   4.603617
    24  N    2.750888   3.662627   4.576907   4.131352   5.218602
    25  C   12.524003  10.504239  10.890487   9.104915   8.446386
    26  C   11.122947   9.080290   9.444805   7.690711   7.005053
    27  C   10.125952   8.176090   8.672912   6.756759   6.221876
    28  C   10.735802   8.921549   9.538113   7.501633   7.127038
    29  H   10.206483   8.522334   9.236367   7.127039   6.905006
    30  C   12.157687  10.342498  10.945252   8.921549   8.522332
    31  H   12.659261  10.945252  11.618364   9.538113   9.236367
    32  C   12.995068  11.074618  11.575759   9.653098   9.123311
    33  H   14.070783  12.157688  12.659261  10.735802  10.206483
    34  S   12.630148  10.495122  10.644324   9.201433   8.332867
    35  N   13.387983  11.308438  11.591251   9.943901   9.187911
    36  N   11.043922   8.925708   9.139356   7.603691   6.775620
                   21         22         23         24         25
    21  C    0.000000
    22  S    3.828837   0.000000
    23  N    2.486323   1.648100   0.000000
    24  N    3.672433   1.638817   2.510419   0.000000
    25  C    8.702932  11.660647  10.021367  12.190399   0.000000
    26  C    7.361758  10.496232   8.848430  10.917003   1.452306
    27  C    6.237208   9.161513   7.518799   9.683828   2.510105
    28  C    6.756759   9.201431   7.603690   9.943897   2.797861
    29  H    6.221878   8.332866   6.775621   9.187909   3.884373
    30  C    8.176090  10.495120   8.925707  11.308435   2.394752
    31  H    8.672913  10.644323   9.139356  11.591249   3.388324
    32  C    9.059179  11.651709  10.048972  12.361586   1.422999
    33  H   10.125953  12.630145  11.043920  13.387979   2.175562
    34  S    9.161516  12.581094  10.940225  12.816715   2.400314
    35  N    9.683832  12.816716  11.170162  13.252317   1.340279
    36  N    7.518801  10.940224   9.301911  11.170161   2.329211
                   26         27         28         29         30
    26  C    0.000000
    27  C    1.442475   0.000000
    28  C    2.411436   1.390985   0.000000
    29  H    3.404937   2.139904   1.087257   0.000000
    30  C    2.802994   2.467096   1.423672   2.166339   0.000000
    31  H    3.887628   3.424202   2.157509   2.454031   1.085487
    32  C    2.498280   2.904558   2.451274   3.414458   1.374867
    33  H    3.478268   3.988728   3.445762   4.319806   2.160495
    34  S    2.407462   3.828841   4.755300   5.791794   4.741101
    35  N    2.335762   3.672437   4.131353   5.218603   3.662628
    36  N    1.338977   2.486325   3.685637   4.603618   4.132572
                   31         32         33         34         35
    31  H    0.000000
    32  C    2.132787   0.000000
    33  H    2.495950   1.084194   0.000000
    34  S    5.773521   3.799133   4.314494   0.000000
    35  N    4.576906   2.461077   2.750890   1.638820   0.000000
    36  N    5.218060   3.651673   4.504227   1.648101   2.510422
                   36
    36  N    0.000000
 Stoichiometry    C18H8N6O2S2(1+,2)
 Framework group  C1[X(C18H8N6O2S2)]
 Deg. of freedom   102
 Full point group                 C1      NOp   1
 Largest Abelian subgroup         C1      NOp   1
 Largest concise Abelian subgroup C1      NOp   1
                         Standard orientation:                         
 ---------------------------------------------------------------------
 Center     Atomic      Atomic             Coordinates (Angstroms)
 Number     Number       Type             X           Y           Z
 ---------------------------------------------------------------------
      1          7           0       -1.605204   -1.391513    0.000026
      2          6           0       -0.249917   -1.797763    0.000014
      3          6           0       -1.756051   -0.013494    0.000005
      4          6           0       -0.475275    0.531818   -0.000008
      5          6           0        0.475273   -0.531815    0.000000
      6          6           0        1.756051    0.013494   -0.000014
      7          6           0        0.249917    1.797766   -0.000037
      8          7           0        1.605206    1.391514   -0.000039
      9          8           0        0.116446   -2.971104    0.000039
     10          8           0       -0.116446    2.971106   -0.000050
     11          1           0        2.385990    2.038521   -0.000062
     12          1           0       -2.385980   -2.038528    0.000040
     13          6           0        4.289577    0.109197   -0.000030
     14          6           0        5.563126   -0.588845   -0.000022
     15          6           0        5.610937   -2.011041    0.000005
     16          1           0        6.569487   -2.517654    0.000014
     17          6           0        4.415952   -2.690946    0.000019
     18          1           0        4.414200   -3.776432    0.000034
     19          6           0        3.159684   -2.021145    0.000014
     20          1           0        2.250843   -2.617916    0.000025
     21          6           0        3.053434   -0.634223   -0.000010
     22         16           0        6.038154    1.763993   -0.000062
     23          7           0        4.421890    1.441622   -0.000057
     24          7           0        6.622069    0.232731   -0.000044
     25          6           0       -5.563127    0.588845    0.000035
     26          6           0       -4.289578   -0.109199    0.000028
     27          6           0       -3.053432    0.634223    0.000010
     28          6           0       -3.159683    2.021144   -0.000002
     29          1           0       -2.250843    2.617916   -0.000020
     30          6           0       -4.415951    2.690945    0.000005
     31          1           0       -4.414200    3.776431   -0.000004
     32          6           0       -5.610936    2.011041    0.000024
     33          1           0       -6.569485    2.517657    0.000026
     34         16           0       -6.038155   -1.763995    0.000060
     35          7           0       -6.622071   -0.232730    0.000053
     36          7           0       -4.421890   -1.441623    0.000040
 ---------------------------------------------------------------------
 Rotational constants (GHZ):      0.4473175      0.0694140      0.0600895
 Standard basis: 6-31+G(d,p) (6D, 7F)
 There are   580 symmetry adapted basis functions of A   symmetry.
 Integral buffers will be    262144 words long.
 Raffenetti 2 integral format.
 Two-electron integral symmetry is turned on.
   580 basis functions,  1000 primitive gaussians,   580 cartesian basis functions
   103 alpha electrons      102 beta electrons
       nuclear repulsion energy      2629.1724324737 Hartrees.
 NAtoms=   36 NActive=   36 NUniq=   36 SFac= 1.00D+00 NAtFMM=   50 NAOKFM=F Big=F
 One-electron integrals computed using PRISM.
 NBasis=   580 RedAO= T  NBF=   580
 NBsUse=   570 1.00D-06 NBFU=   570
 Harris functional with IExCor=  402 diagonalized for initial guess.
 ExpMin= 4.05D-02 ExpMax= 2.19D+04 ExpMxC= 3.30D+03 IAcc=2 IRadAn=         0 AccDes= 0.00D+00
 HarFok:  IExCor=  402 AccDes= 0.00D+00 IRadAn=         0 IDoV= 1
 ScaDFX=  1.000000  1.000000  1.000000  1.000000
 FoFCou: FMM=F IPFlag=           0 FMFlag=      100000 FMFlg1=           0
         NFxFlg=           0 DoJE=T BraDBF=F KetDBF=T FulRan=T
         Omega=  0.000000  0.000000  1.000000  0.000000  0.000000 ICntrl=     500 IOpCl=  0
         NMat0=    1 NMatS0=    1 NMatT0=    0 NMatD0=    1 NMtDS0=    0 NMtDT0=    0
         I1Cent=           4 NGrid=           0.
 Petite list used in FoFCou.
 Initial guess orbital symmetries:
 Alpha Orbitals:
       Occupied  (A) (A) (A) (A) (A) (A) (A) (A) (A) (A) (A) (A)
                 (A) (A) (A) (A) (A) (A) (A) (A) (A) (A) (A) (A)
                 (A) (A) (A) (A) (A) (A) (A) (A) (A) (A) (A) (A)
                 (A) (A) (A) (A) (A) (A) (A) (A) (A) (A) (A) (A)
                 (A) (A) (A) (A) (A) (A) (A) (A) (A) (A) (A) (A)
                 (A) (A) (A) (A) (A) (A) (A) (A) (A) (A) (A) (A)
                 (A) (A) (A) (A) (A) (A) (A) (A) (A) (A) (A) (A)
                 (A) (A) (A) (A) (A) (A) (A) (A) (A) (A) (A) (A)
                 (A) (A) (A) (A) (A) (A) (A)
       Virtual   (A) (A) (A) (A) (A) (A) (A) (A) (A) (A) (A) (A)
                 (A) (A) (A) (A) (A) (A) (A) (A) (A) (A) (A) (A)
                 (A) (A) (A) (A) (A) (A) (A) (A) (A) (A) (A) (A)
                 (A) (A) (A) (A) (A) (A) (A) (A) (A) (A) (A) (A)
                 (A) (A) (A) (A) (A) (A) (A) (A) (A) (A) (A) (A)
                 (A) (A) (A) (A) (A) (A) (A) (A) (A) (A) (A) (A)
                 (A) (A) (A) (A) (A) (A) (A) (A) (A) (A) (A) (A)
                 (A) (A) (A) (A) (A) (A) (A) (A) (A) (A) (A) (A)
                 (A) (A) (A) (A) (A) (A) (A) (A) (A) (A) (A) (A)
                 (A) (A) (A) (A) (A) (A) (A) (A) (A) (A) (A) (A)
                 (A) (A) (A) (A) (A) (A) (A) (A) (A) (A) (A) (A)
                 (A) (A) (A) (A) (A) (A) (A) (A) (A) (A) (A) (A)
                 (A) (A) (A) (A) (A) (A) (A) (A) (A) (A) (A) (A)
                 (A) (A) (A) (A) (A) (A) (A) (A) (A) (A) (A) (A)
                 (A) (A) (A) (A) (A) (A) (A) (A) (A) (A) (A) (A)
                 (A) (A) (A) (A) (A) (A) (A) (A) (A) (A) (A) (A)
                 (A) (A) (A) (A) (A) (A) (A) (A) (A) (A) (A) (A)
                 (A) (A) (A) (A) (A) (A) (A) (A) (A) (A) (A) (A)
                 (A) (A) (A) (A) (A) (A) (A) (A) (A) (A) (A) (A)
                 (A) (A) (A) (A) (A) (A) (A) (A) (A) (A) (A) (A)
                 (A) (A) (A) (A) (A) (A) (A) (A) (A) (A) (A) (A)
                 (A) (A) (A) (A) (A) (A) (A) (A) (A) (A) (A) (A)
                 (A) (A) (A) (A) (A) (A) (A) (A) (A) (A) (A) (A)
                 (A) (A) (A) (A) (A) (A) (A) (A) (A) (A) (A) (A)
                 (A) (A) (A) (A) (A) (A) (A) (A) (A) (A) (A) (A)
                 (A) (A) (A) (A) (A) (A) (A) (A) (A) (A) (A) (A)
                 (A) (A) (A) (A) (A) (A) (A) (A) (A) (A) (A) (A)
                 (A) (A) (A) (A) (A) (A) (A) (A) (A) (A) (A) (A)
                 (A) (A) (A) (A) (A) (A) (A) (A) (A) (A) (A) (A)
                 (A) (A) (A) (A) (A) (A) (A) (A) (A) (A) (A) (A)
                 (A) (A) (A) (A) (A) (A) (A) (A) (A) (A) (A) (A)
                 (A) (A) (A) (A) (A) (A) (A) (A) (A) (A) (A) (A)
                 (A) (A) (A) (A) (A) (A) (A) (A) (A) (A) (A) (A)
                 (A) (A) (A) (A) (A) (A) (A) (A) (A) (A) (A) (A)
                 (A) (A) (A) (A) (A) (A) (A) (A) (A) (A) (A) (A)
                 (A) (A) (A) (A) (A) (A) (A) (A) (A) (A) (A) (A)
                 (A) (A) (A) (A) (A) (A) (A) (A) (A) (A) (A) (A)
                 (A) (A) (A) (A) (A) (A) (A) (A) (A) (A) (A) (A)
                 (A) (A) (A) (A) (A) (A) (A) (A) (A) (A) (A)
 Beta  Orbitals:
       Occupied  (A) (A) (A) (A) (A) (A) (A) (A) (A) (A) (A) (A)
                 (A) (A) (A) (A) (A) (A) (A) (A) (A) (A) (A) (A)
                 (A) (A) (A) (A) (A) (A) (A) (A) (A) (A) (A) (A)
                 (A) (A) (A) (A) (A) (A) (A) (A) (A) (A) (A) (A)
                 (A) (A) (A) (A) (A) (A) (A) (A) (A) (A) (A) (A)
                 (A) (A) (A) (A) (A) (A) (A) (A) (A) (A) (A) (A)
                 (A) (A) (A) (A) (A) (A) (A) (A) (A) (A) (A) (A)
                 (A) (A) (A) (A) (A) (A) (A) (A) (A) (A) (A) (A)
                 (A) (A) (A) (A) (A) (A)
       Virtual   (A) (A) (A) (A) (A) (A) (A) (A) (A) (A) (A) (A)
                 (A) (A) (A) (A) (A) (A) (A) (A) (A) (A) (A) (A)
                 (A) (A) (A) (A) (A) (A) (A) (A) (A) (A) (A) (A)
                 (A) (A) (A) (A) (A) (A) (A) (A) (A) (A) (A) (A)
                 (A) (A) (A) (A) (A) (A) (A) (A) (A) (A) (A) (A)
                 (A) (A) (A) (A) (A) (A) (A) (A) (A) (A) (A) (A)
                 (A) (A) (A) (A) (A) (A) (A) (A) (A) (A) (A) (A)
                 (A) (A) (A) (A) (A) (A) (A) (A) (A) (A) (A) (A)
                 (A) (A) (A) (A) (A) (A) (A) (A) (A) (A) (A) (A)
                 (A) (A) (A) (A) (A) (A) (A) (A) (A) (A) (A) (A)
                 (A) (A) (A) (A) (A) (A) (A) (A) (A) (A) (A) (A)
                 (A) (A) (A) (A) (A) (A) (A) (A) (A) (A) (A) (A)
                 (A) (A) (A) (A) (A) (A) (A) (A) (A) (A) (A) (A)
                 (A) (A) (A) (A) (A) (A) (A) (A) (A) (A) (A) (A)
                 (A) (A) (A) (A) (A) (A) (A) (A) (A) (A) (A) (A)
                 (A) (A) (A) (A) (A) (A) (A) (A) (A) (A) (A) (A)
                 (A) (A) (A) (A) (A) (A) (A) (A) (A) (A) (A) (A)
                 (A) (A) (A) (A) (A) (A) (A) (A) (A) (A) (A) (A)
                 (A) (A) (A) (A) (A) (A) (A) (A) (A) (A) (A) (A)
                 (A) (A) (A) (A) (A) (A) (A) (A) (A) (A) (A) (A)
                 (A) (A) (A) (A) (A) (A) (A) (A) (A) (A) (A) (A)
                 (A) (A) (A) (A) (A) (A) (A) (A) (A) (A) (A) (A)
                 (A) (A) (A) (A) (A) (A) (A) (A) (A) (A) (A) (A)
                 (A) (A) (A) (A) (A) (A) (A) (A) (A) (A) (A) (A)
                 (A) (A) (A) (A) (A) (A) (A) (A) (A) (A) (A) (A)
                 (A) (A) (A) (A) (A) (A) (A) (A) (A) (A) (A) (A)
                 (A) (A) (A) (A) (A) (A) (A) (A) (A) (A) (A) (A)
                 (A) (A) (A) (A) (A) (A) (A) (A) (A) (A) (A) (A)
                 (A) (A) (A) (A) (A) (A) (A) (A) (A) (A) (A) (A)
                 (A) (A) (A) (A) (A) (A) (A) (A) (A) (A) (A) (A)
                 (A) (A) (A) (A) (A) (A) (A) (A) (A) (A) (A) (A)
                 (A) (A) (A) (A) (A) (A) (A) (A) (A) (A) (A) (A)
                 (A) (A) (A) (A) (A) (A) (A) (A) (A) (A) (A) (A)
                 (A) (A) (A) (A) (A) (A) (A) (A) (A) (A) (A) (A)
                 (A) (A) (A) (A) (A) (A) (A) (A) (A) (A) (A) (A)
                 (A) (A) (A) (A) (A) (A) (A) (A) (A) (A) (A) (A)
                 (A) (A) (A) (A) (A) (A) (A) (A) (A) (A) (A) (A)
                 (A) (A) (A) (A) (A) (A) (A) (A) (A) (A) (A) (A)
                 (A) (A) (A) (A) (A) (A) (A) (A) (A) (A) (A) (A)
 The electronic state of the initial guess is 2-A.
 Initial guess <Sx>= 0.0000 <Sy>= 0.0000 <Sz>= 0.5000 <S**2>= 0.7500 S= 0.5000
 Requested convergence on RMS density matrix=1.00D-08 within 128 cycles.
 Requested convergence on MAX density matrix=1.00D-06.
 Requested convergence on             energy=1.00D-06.
 No special actions if energy rises.
 DSYEVD returned Info=         713 IAlg= 4 N=   570 NDim=   570 NE2=       56534 trying DSYEV.
 Restarting incremental Fock formation.
 SCF Done:  E(UB3LYP) =  -1965.86889695     A.U. after   24 cycles
             Convg  =    0.9718D-08             -V/T =  2.0070
 <Sx>= 0.0000 <Sy>= 0.0000 <Sz>= 0.5000 <S**2>= 0.7612 S= 0.5056
 <L.S>= 0.000000000000E+00
 Annihilation of the first spin contaminant:
 S**2 before annihilation     0.7612,   after     0.7501

 **********************************************************************

            Population analysis using the SCF density.

 **********************************************************************

 Orbital symmetries:
 Alpha Orbitals:
       Occupied  (A) (A) (A) (A) (A) (A) (A) (A) (A) (A) (A) (A)
                 (A) (A) (A) (A) (A) (A) (A) (A) (A) (A) (A) (A)
                 (A) (A) (A) (A) (A) (A) (A) (A) (A) (A) (A) (A)
                 (A) (A) (A) (A) (A) (A) (A) (A) (A) (A) (A) (A)
                 (A) (A) (A) (A) (A) (A) (A) (A) (A) (A) (A) (A)
                 (A) (A) (A) (A) (A) (A) (A) (A) (A) (A) (A) (A)
                 (A) (A) (A) (A) (A) (A) (A) (A) (A) (A) (A) (A)
                 (A) (A) (A) (A) (A) (A) (A) (A) (A) (A) (A) (A)
                 (A) (A) (A) (A) (A) (A) (A)
       Virtual   (A) (A) (A) (A) (A) (A) (A) (A) (A) (A) (A) (A)
                 (A) (A) (A) (A) (A) (A) (A) (A) (A) (A) (A) (A)
                 (A) (A) (A) (A) (A) (A) (A) (A) (A) (A) (A) (A)
                 (A) (A) (A) (A) (A) (A) (A) (A) (A) (A) (A) (A)
                 (A) (A) (A) (A) (A) (A) (A) (A) (A) (A) (A) (A)
                 (A) (A) (A) (A) (A) (A) (A) (A) (A) (A) (A) (A)
                 (A) (A) (A) (A) (A) (A) (A) (A) (A) (A) (A) (A)
                 (A) (A) (A) (A) (A) (A) (A) (A) (A) (A) (A) (A)
                 (A) (A) (A) (A) (A) (A) (A) (A) (A) (A) (A) (A)
                 (A) (A) (A) (A) (A) (A) (A) (A) (A) (A) (A) (A)
                 (A) (A) (A) (A) (A) (A) (A) (A) (A) (A) (A) (A)
                 (A) (A) (A) (A) (A) (A) (A) (A) (A) (A) (A) (A)
                 (A) (A) (A) (A) (A) (A) (A) (A) (A) (A) (A) (A)
                 (A) (A) (A) (A) (A) (A) (A) (A) (A) (A) (A) (A)
                 (A) (A) (A) (A) (A) (A) (A) (A) (A) (A) (A) (A)
                 (A) (A) (A) (A) (A) (A) (A) (A) (A) (A) (A) (A)
                 (A) (A) (A) (A) (A) (A) (A) (A) (A) (A) (A) (A)
                 (A) (A) (A) (A) (A) (A) (A) (A) (A) (A) (A) (A)
                 (A) (A) (A) (A) (A) (A) (A) (A) (A) (A) (A) (A)
                 (A) (A) (A) (A) (A) (A) (A) (A) (A) (A) (A) (A)
                 (A) (A) (A) (A) (A) (A) (A) (A) (A) (A) (A) (A)
                 (A) (A) (A) (A) (A) (A) (A) (A) (A) (A) (A) (A)
                 (A) (A) (A) (A) (A) (A) (A) (A) (A) (A) (A) (A)
                 (A) (A) (A) (A) (A) (A) (A) (A) (A) (A) (A) (A)
                 (A) (A) (A) (A) (A) (A) (A) (A) (A) (A) (A) (A)
                 (A) (A) (A) (A) (A) (A) (A) (A) (A) (A) (A) (A)
                 (A) (A) (A) (A) (A) (A) (A) (A) (A) (A) (A) (A)
                 (A) (A) (A) (A) (A) (A) (A) (A) (A) (A) (A) (A)
                 (A) (A) (A) (A) (A) (A) (A) (A) (A) (A) (A) (A)
                 (A) (A) (A) (A) (A) (A) (A) (A) (A) (A) (A) (A)
                 (A) (A) (A) (A) (A) (A) (A) (A) (A) (A) (A) (A)
                 (A) (A) (A) (A) (A) (A) (A) (A) (A) (A) (A) (A)
                 (A) (A) (A) (A) (A) (A) (A) (A) (A) (A) (A) (A)
                 (A) (A) (A) (A) (A) (A) (A) (A) (A) (A) (A) (A)
                 (A) (A) (A) (A) (A) (A) (A) (A) (A) (A) (A) (A)
                 (A) (A) (A) (A) (A) (A) (A) (A) (A) (A) (A) (A)
                 (A) (A) (A) (A) (A) (A) (A) (A) (A) (A) (A) (A)
                 (A) (A) (A) (A) (A) (A) (A) (A) (A) (A) (A) (A)
                 (A) (A) (A) (A) (A) (A) (A) (A) (A) (A) (A)
 Beta  Orbitals:
       Occupied  (A) (A) (A) (A) (A) (A) (A) (A) (A) (A) (A) (A)
                 (A) (A) (A) (A) (A) (A) (A) (A) (A) (A) (A) (A)
                 (A) (A) (A) (A) (A) (A) (A) (A) (A) (A) (A) (A)
                 (A) (A) (A) (A) (A) (A) (A) (A) (A) (A) (A) (A)
                 (A) (A) (A) (A) (A) (A) (A) (A) (A) (A) (A) (A)
                 (A) (A) (A) (A) (A) (A) (A) (A) (A) (A) (A) (A)
                 (A) (A) (A) (A) (A) (A) (A) (A) (A) (A) (A) (A)
                 (A) (A) (A) (A) (A) (A) (A) (A) (A) (A) (A) (A)
                 (A) (A) (A) (A) (A) (A)
       Virtual   (A) (A) (A) (A) (A) (A) (A) (A) (A) (A) (A) (A)
                 (A) (A) (A) (A) (A) (A) (A) (A) (A) (A) (A) (A)
                 (A) (A) (A) (A) (A) (A) (A) (A) (A) (A) (A) (A)
                 (A) (A) (A) (A) (A) (A) (A) (A) (A) (A) (A) (A)
                 (A) (A) (A) (A) (A) (A) (A) (A) (A) (A) (A) (A)
                 (A) (A) (A) (A) (A) (A) (A) (A) (A) (A) (A) (A)
                 (A) (A) (A) (A) (A) (A) (A) (A) (A) (A) (A) (A)
                 (A) (A) (A) (A) (A) (A) (A) (A) (A) (A) (A) (A)
                 (A) (A) (A) (A) (A) (A) (A) (A) (A) (A) (A) (A)
                 (A) (A) (A) (A) (A) (A) (A) (A) (A) (A) (A) (A)
                 (A) (A) (A) (A) (A) (A) (A) (A) (A) (A) (A) (A)
                 (A) (A) (A) (A) (A) (A) (A) (A) (A) (A) (A) (A)
                 (A) (A) (A) (A) (A) (A) (A) (A) (A) (A) (A) (A)
                 (A) (A) (A) (A) (A) (A) (A) (A) (A) (A) (A) (A)
                 (A) (A) (A) (A) (A) (A) (A) (A) (A) (A) (A) (A)
                 (A) (A) (A) (A) (A) (A) (A) (A) (A) (A) (A) (A)
                 (A) (A) (A) (A) (A) (A) (A) (A) (A) (A) (A) (A)
                 (A) (A) (A) (A) (A) (A) (A) (A) (A) (A) (A) (A)
                 (A) (A) (A) (A) (A) (A) (A) (A) (A) (A) (A) (A)
                 (A) (A) (A) (A) (A) (A) (A) (A) (A) (A) (A) (A)
                 (A) (A) (A) (A) (A) (A) (A) (A) (A) (A) (A) (A)
                 (A) (A) (A) (A) (A) (A) (A) (A) (A) (A) (A) (A)
                 (A) (A) (A) (A) (A) (A) (A) (A) (A) (A) (A) (A)
                 (A) (A) (A) (A) (A) (A) (A) (A) (A) (A) (A) (A)
                 (A) (A) (A) (A) (A) (A) (A) (A) (A) (A) (A) (A)
                 (A) (A) (A) (A) (A) (A) (A) (A) (A) (A) (A) (A)
                 (A) (A) (A) (A) (A) (A) (A) (A) (A) (A) (A) (A)
                 (A) (A) (A) (A) (A) (A) (A) (A) (A) (A) (A) (A)
                 (A) (A) (A) (A) (A) (A) (A) (A) (A) (A) (A) (A)
                 (A) (A) (A) (A) (A) (A) (A) (A) (A) (A) (A) (A)
                 (A) (A) (A) (A) (A) (A) (A) (A) (A) (A) (A) (A)
                 (A) (A) (A) (A) (A) (A) (A) (A) (A) (A) (A) (A)
                 (A) (A) (A) (A) (A) (A) (A) (A) (A) (A) (A) (A)
                 (A) (A) (A) (A) (A) (A) (A) (A) (A) (A) (A) (A)
                 (A) (A) (A) (A) (A) (A) (A) (A) (A) (A) (A) (A)
                 (A) (A) (A) (A) (A) (A) (A) (A) (A) (A) (A) (A)
                 (A) (A) (A) (A) (A) (A) (A) (A) (A) (A) (A) (A)
                 (A) (A) (A) (A) (A) (A) (A) (A) (A) (A) (A) (A)
                 (A) (A) (A) (A) (A) (A) (A) (A) (A) (A) (A) (A)
 The electronic state is 2-A.
 Alpha  occ. eigenvalues --  -89.10902 -89.10902 -19.29764 -19.29764 -14.53539
 Alpha  occ. eigenvalues --  -14.53539 -14.50939 -14.50939 -14.50718 -14.50718
 Alpha  occ. eigenvalues --  -10.45845 -10.45845 -10.43394 -10.43394 -10.38817
 Alpha  occ. eigenvalues --  -10.38817 -10.37920 -10.37920 -10.37349 -10.37349
 Alpha  occ. eigenvalues --  -10.36790 -10.36744 -10.35903 -10.35903 -10.35483
 Alpha  occ. eigenvalues --  -10.35483 -10.34249 -10.34249  -8.16149  -8.16149
 Alpha  occ. eigenvalues --   -6.12712  -6.12712  -6.12114  -6.12114  -6.11903
 Alpha  occ. eigenvalues --   -6.11903  -1.20725  -1.20186  -1.15466  -1.15452
 Alpha  occ. eigenvalues --   -1.13610  -1.11965  -1.02938  -1.02876  -1.00710
 Alpha  occ. eigenvalues --   -1.00663  -0.97063  -0.93828  -0.92498  -0.89987
 Alpha  occ. eigenvalues --   -0.89911  -0.87442  -0.84167  -0.83131  -0.79271
 Alpha  occ. eigenvalues --   -0.78414  -0.76498  -0.75507  -0.74960  -0.74084
 Alpha  occ. eigenvalues --   -0.71880  -0.69123  -0.67686  -0.65926  -0.65368
 Alpha  occ. eigenvalues --   -0.64483  -0.64121  -0.62677  -0.62444  -0.62053
 Alpha  occ. eigenvalues --   -0.61919  -0.61346  -0.59852  -0.59123  -0.58653
 Alpha  occ. eigenvalues --   -0.58495  -0.58489  -0.57683  -0.55519  -0.53595
 Alpha  occ. eigenvalues --   -0.53463  -0.53140  -0.52012  -0.51845  -0.51602
 Alpha  occ. eigenvalues --   -0.51270  -0.51269  -0.48931  -0.48694  -0.46860
 Alpha  occ. eigenvalues --   -0.46384  -0.46302  -0.46202  -0.43887  -0.43742
 Alpha  occ. eigenvalues --   -0.43147  -0.42678  -0.41703  -0.40460  -0.40080
 Alpha  occ. eigenvalues --   -0.39785  -0.39286  -0.35306
 Alpha virt. eigenvalues --   -0.26164  -0.22914  -0.21073  -0.17018  -0.13338
 Alpha virt. eigenvalues --   -0.13276  -0.13044  -0.12149  -0.12149  -0.11788
 Alpha virt. eigenvalues --   -0.10866  -0.09522  -0.08232  -0.08205  -0.07640
 Alpha virt. eigenvalues --   -0.06893  -0.06859  -0.06649  -0.06096  -0.05680
 Alpha virt. eigenvalues --   -0.05411  -0.05013  -0.04971  -0.04194  -0.04113
 Alpha virt. eigenvalues --   -0.03624  -0.03067  -0.02949  -0.02527  -0.02399
 Alpha virt. eigenvalues --   -0.02142  -0.01844  -0.01812  -0.00992  -0.00669
 Alpha virt. eigenvalues --    0.00055   0.00151   0.00690   0.00950   0.00971
 Alpha virt. eigenvalues --    0.01325   0.01690   0.01928   0.02001   0.02044
 Alpha virt. eigenvalues --    0.02254   0.02893   0.03275   0.03369   0.03914
 Alpha virt. eigenvalues --    0.04155   0.04381   0.04564   0.05095   0.05303
 Alpha virt. eigenvalues --    0.05382   0.05830   0.06298   0.06316   0.06606
 Alpha virt. eigenvalues --    0.06677   0.06899   0.07811   0.07893   0.08276
 Alpha virt. eigenvalues --    0.08735   0.08770   0.08824   0.08972   0.09201
 Alpha virt. eigenvalues --    0.09496   0.10388   0.10670   0.11026   0.11194
 Alpha virt. eigenvalues --    0.11338   0.11533   0.11594   0.11710   0.12178
 Alpha virt. eigenvalues --    0.12362   0.12408   0.13105   0.13376   0.13448
 Alpha virt. eigenvalues --    0.13489   0.13551   0.13742   0.14557   0.14580
 Alpha virt. eigenvalues --    0.14947   0.15023   0.15350   0.15481   0.15873
 Alpha virt. eigenvalues --    0.16076   0.16656   0.16679   0.16890   0.16926
 Alpha virt. eigenvalues --    0.16965   0.17174   0.17548   0.17830   0.17885
 Alpha virt. eigenvalues --    0.18608   0.18626   0.18781   0.19141   0.19150
 Alpha virt. eigenvalues --    0.19266   0.20056   0.20216   0.20218   0.20702
 Alpha virt. eigenvalues --    0.21431   0.21542   0.22141   0.22176   0.22223
 Alpha virt. eigenvalues --    0.22869   0.23702   0.23727   0.24292   0.24643
 Alpha virt. eigenvalues --    0.25822   0.26107   0.26568   0.27159   0.27159
 Alpha virt. eigenvalues --    0.27696   0.28398   0.29465   0.30464   0.30980
 Alpha virt. eigenvalues --    0.30987   0.31173   0.32493   0.33754   0.34045
 Alpha virt. eigenvalues --    0.34683   0.35755   0.35805   0.36586   0.37500
 Alpha virt. eigenvalues --    0.38014   0.38085   0.38223   0.38668   0.39291
 Alpha virt. eigenvalues --    0.39695   0.40805   0.43330   0.43807   0.45556
 Alpha virt. eigenvalues --    0.46983   0.49446   0.50341   0.50795   0.52188
 Alpha virt. eigenvalues --    0.52697   0.53379   0.53638   0.54496   0.54792
 Alpha virt. eigenvalues --    0.55050   0.55604   0.55971   0.55986   0.56378
 Alpha virt. eigenvalues --    0.56664   0.57135   0.57217   0.58591   0.59187
 Alpha virt. eigenvalues --    0.59587   0.60109   0.60750   0.60804   0.60861
 Alpha virt. eigenvalues --    0.61111   0.62466   0.62813   0.63265   0.63825
 Alpha virt. eigenvalues --    0.64254   0.64414   0.65469   0.65877   0.66022
 Alpha virt. eigenvalues --    0.66451   0.67909   0.68215   0.68367   0.69361
 Alpha virt. eigenvalues --    0.69715   0.71625   0.73293   0.75014   0.75182
 Alpha virt. eigenvalues --    0.75188   0.76645   0.76988   0.80646   0.81797
 Alpha virt. eigenvalues --    0.82021   0.82298   0.82520   0.83323   0.84528
 Alpha virt. eigenvalues --    0.85548   0.86206   0.86518   0.86863   0.88427
 Alpha virt. eigenvalues --    0.88468   0.88515   0.89387   0.91659   0.91849
 Alpha virt. eigenvalues --    0.92478   0.92773   0.93023   0.93861   0.93884
 Alpha virt. eigenvalues --    0.95022   0.96003   0.97371   0.97964   0.98077
 Alpha virt. eigenvalues --    0.99101   0.99380   1.00720   1.02410   1.02479
 Alpha virt. eigenvalues --    1.03005   1.03954   1.04005   1.04804   1.05728
 Alpha virt. eigenvalues --    1.06972   1.07304   1.07343   1.08578   1.08718
 Alpha virt. eigenvalues --    1.09011   1.09272   1.09383   1.10403   1.11960
 Alpha virt. eigenvalues --    1.12094   1.12880   1.13147   1.13720   1.14373
 Alpha virt. eigenvalues --    1.15400   1.15755   1.15969   1.16042   1.16705
 Alpha virt. eigenvalues --    1.17490   1.19050   1.19661   1.19859   1.20090
 Alpha virt. eigenvalues --    1.21032   1.22609   1.23355   1.23529   1.23542
 Alpha virt. eigenvalues --    1.23554   1.23666   1.23750   1.24612   1.25426
 Alpha virt. eigenvalues --    1.26024   1.26505   1.26900   1.27084   1.27410
 Alpha virt. eigenvalues --    1.28050   1.30588   1.31839   1.35971   1.36808
 Alpha virt. eigenvalues --    1.38069   1.39697   1.40458   1.41157   1.45399
 Alpha virt. eigenvalues --    1.45758   1.47866   1.50313   1.55911   1.56238
 Alpha virt. eigenvalues --    1.57365   1.57725   1.58104   1.58472   1.59049
 Alpha virt. eigenvalues --    1.59853   1.60560   1.61430   1.63361   1.63454
 Alpha virt. eigenvalues --    1.63621   1.64186   1.66032   1.67096   1.67866
 Alpha virt. eigenvalues --    1.70338   1.70618   1.71230   1.71959   1.72192
 Alpha virt. eigenvalues --    1.72254   1.73595   1.75965   1.76309   1.76563
 Alpha virt. eigenvalues --    1.77521   1.77894   1.78352   1.80903   1.81118
 Alpha virt. eigenvalues --    1.81526   1.82846   1.83163   1.83993   1.84725
 Alpha virt. eigenvalues --    1.84991   1.85082   1.85312   1.85562   1.87573
 Alpha virt. eigenvalues --    1.87912   1.90527   1.91184   1.91670   1.92425
 Alpha virt. eigenvalues --    1.94673   1.95863   1.95926   1.99082   1.99283
 Alpha virt. eigenvalues --    2.01859   2.03924   2.05320   2.05406   2.08424
 Alpha virt. eigenvalues --    2.12103   2.12882   2.13360   2.13764   2.14803
 Alpha virt. eigenvalues --    2.15493   2.15780   2.17898   2.18405   2.18598
 Alpha virt. eigenvalues --    2.20505   2.21104   2.23969   2.24315   2.25148
 Alpha virt. eigenvalues --    2.25297   2.26688   2.27742   2.29038   2.31161
 Alpha virt. eigenvalues --    2.31345   2.31636   2.32338   2.32478   2.33378
 Alpha virt. eigenvalues --    2.33925   2.35139   2.35152   2.36722   2.37081
 Alpha virt. eigenvalues --    2.39480   2.39616   2.40826   2.41283   2.41866
 Alpha virt. eigenvalues --    2.43879   2.46848   2.47448   2.47922   2.47929
 Alpha virt. eigenvalues --    2.48710   2.50697   2.50927   2.51348   2.53537
 Alpha virt. eigenvalues --    2.55324   2.56650   2.56949   2.58339   2.59253
 Alpha virt. eigenvalues --    2.61496   2.62393   2.63100   2.64950   2.65903
 Alpha virt. eigenvalues --    2.66945   2.68573   2.71846   2.73306   2.73892
 Alpha virt. eigenvalues --    2.76038   2.79891   2.81113   2.82471   2.86532
 Alpha virt. eigenvalues --    2.88149   2.88250   2.90814   2.92576   2.95234
 Alpha virt. eigenvalues --    2.95261   2.97116   3.02030   3.08723   3.09975
 Alpha virt. eigenvalues --    3.10823   3.14398   3.16341   3.17093   3.18795
 Alpha virt. eigenvalues --    3.19088   3.26864   3.31242   3.31598   3.35242
 Alpha virt. eigenvalues --    3.45971   3.47390   3.65632   3.65895   3.83057
 Alpha virt. eigenvalues --    3.83100   3.98690   3.98871   4.08517   4.09909
 Alpha virt. eigenvalues --    4.12961   4.16354   4.16633   4.18463   4.20611
 Alpha virt. eigenvalues --    4.22296   4.24926   4.25650   4.28160   4.31708
 Alpha virt. eigenvalues --    4.33534   4.35848   4.37132   4.43446   4.45233
 Alpha virt. eigenvalues --    4.46954   4.54638   4.63080   4.73117   4.74333
 Alpha virt. eigenvalues --    4.90579   4.98428
  Beta  occ. eigenvalues --  -89.10908 -89.10908 -19.29394 -19.29394 -14.53520
  Beta  occ. eigenvalues --  -14.53520 -14.50935 -14.50935 -14.50655 -14.50655
  Beta  occ. eigenvalues --  -10.45882 -10.45881 -10.43268 -10.43268 -10.38804
  Beta  occ. eigenvalues --  -10.38804 -10.37946 -10.37946 -10.37357 -10.37357
  Beta  occ. eigenvalues --  -10.36562 -10.36515 -10.35792 -10.35792 -10.35354
  Beta  occ. eigenvalues --  -10.35354 -10.34293 -10.34293  -8.16155  -8.16155
  Beta  occ. eigenvalues --   -6.12716  -6.12716  -6.12119  -6.12119  -6.11921
  Beta  occ. eigenvalues --   -6.11921  -1.20217  -1.19638  -1.15415  -1.15410
  Beta  occ. eigenvalues --   -1.13195  -1.11708  -1.02859  -1.02798  -1.00554
  Beta  occ. eigenvalues --   -1.00519  -0.96633  -0.93482  -0.92326  -0.89953
  Beta  occ. eigenvalues --   -0.89873  -0.86896  -0.83849  -0.82957  -0.79107
  Beta  occ. eigenvalues --   -0.78345  -0.76396  -0.75437  -0.74856  -0.73973
  Beta  occ. eigenvalues --   -0.71742  -0.69013  -0.67528  -0.65850  -0.65236
  Beta  occ. eigenvalues --   -0.64392  -0.64050  -0.62363  -0.61898  -0.61781
  Beta  occ. eigenvalues --   -0.61729  -0.61277  -0.59757  -0.58907  -0.58390
  Beta  occ. eigenvalues --   -0.58319  -0.58147  -0.57098  -0.55276  -0.53536
  Beta  occ. eigenvalues --   -0.53379  -0.52121  -0.51959  -0.51793  -0.51257
  Beta  occ. eigenvalues --   -0.51256  -0.50668  -0.48127  -0.48029  -0.46261
  Beta  occ. eigenvalues --   -0.46164  -0.46115  -0.45892  -0.43769  -0.43684
  Beta  occ. eigenvalues --   -0.42836  -0.41689  -0.41335  -0.39973  -0.39874
  Beta  occ. eigenvalues --   -0.39106  -0.38569
  Beta virt. eigenvalues --   -0.30400  -0.24799  -0.22348  -0.20514  -0.16301
  Beta virt. eigenvalues --   -0.13093  -0.13036  -0.12510  -0.12138  -0.12137
  Beta virt. eigenvalues --   -0.11167  -0.10823  -0.09513  -0.08205  -0.08180
  Beta virt. eigenvalues --   -0.07634  -0.06886  -0.06799  -0.06632  -0.06063
  Beta virt. eigenvalues --   -0.05376  -0.04977  -0.04957  -0.04956  -0.04168
  Beta virt. eigenvalues --   -0.03667  -0.03607  -0.03001  -0.02503  -0.02285
  Beta virt. eigenvalues --   -0.02240  -0.02119  -0.01841  -0.01795  -0.00929
  Beta virt. eigenvalues --   -0.00648   0.00099   0.00241   0.00730   0.00999
  Beta virt. eigenvalues --    0.01158   0.01346   0.01742   0.01943   0.02148
  Beta virt. eigenvalues --    0.02227   0.02269   0.02926   0.03402   0.03720
  Beta virt. eigenvalues --    0.03978   0.04355   0.04397   0.04594   0.05163
  Beta virt. eigenvalues --    0.05375   0.05470   0.05902   0.06341   0.06364
  Beta virt. eigenvalues --    0.06656   0.06728   0.07032   0.07832   0.07938
  Beta virt. eigenvalues --    0.08319   0.08819   0.08838   0.08889   0.09051
  Beta virt. eigenvalues --    0.09298   0.09580   0.10439   0.10722   0.11053
  Beta virt. eigenvalues --    0.11265   0.11371   0.11569   0.11616   0.11739
  Beta virt. eigenvalues --    0.12200   0.12429   0.12496   0.13182   0.13402
  Beta virt. eigenvalues --    0.13507   0.13543   0.13616   0.13903   0.14584
  Beta virt. eigenvalues --    0.14650   0.14979   0.15098   0.15418   0.15538
  Beta virt. eigenvalues --    0.15934   0.16120   0.16677   0.16763   0.16948
  Beta virt. eigenvalues --    0.16949   0.16992   0.17304   0.17594   0.17923
  Beta virt. eigenvalues --    0.17941   0.18659   0.18685   0.18815   0.19157
  Beta virt. eigenvalues --    0.19201   0.19295   0.20174   0.20259   0.20303
  Beta virt. eigenvalues --    0.20738   0.21500   0.21588   0.22300   0.22355
  Beta virt. eigenvalues --    0.22381   0.22909   0.23749   0.23815   0.24317
  Beta virt. eigenvalues --    0.24736   0.25955   0.26199   0.26607   0.27199
  Beta virt. eigenvalues --    0.27217   0.27786   0.28446   0.29526   0.30531
  Beta virt. eigenvalues --    0.31013   0.31043   0.31222   0.32553   0.33813
  Beta virt. eigenvalues --    0.34086   0.34736   0.35828   0.35869   0.36645
  Beta virt. eigenvalues --    0.37526   0.38082   0.38134   0.38204   0.38718
  Beta virt. eigenvalues --    0.39271   0.39791   0.40843   0.43399   0.43869
  Beta virt. eigenvalues --    0.45739   0.47108   0.49570   0.50454   0.50933
  Beta virt. eigenvalues --    0.52311   0.52718   0.53474   0.53773   0.54511
  Beta virt. eigenvalues --    0.54839   0.55299   0.55737   0.56009   0.56061
  Beta virt. eigenvalues --    0.56784   0.56994   0.57225   0.57506   0.58647
  Beta virt. eigenvalues --    0.59252   0.59872   0.60344   0.60783   0.60821
  Beta virt. eigenvalues --    0.60897   0.61273   0.62621   0.62830   0.63538
  Beta virt. eigenvalues --    0.64045   0.64295   0.64459   0.65488   0.66057
  Beta virt. eigenvalues --    0.66077   0.66608   0.68152   0.68446   0.69010
  Beta virt. eigenvalues --    0.69630   0.69765   0.71747   0.73331   0.75060
  Beta virt. eigenvalues --    0.75227   0.75395   0.76705   0.77042   0.80702
  Beta virt. eigenvalues --    0.81809   0.82042   0.82329   0.82567   0.83493
  Beta virt. eigenvalues --    0.84559   0.85565   0.86326   0.86573   0.86908
  Beta virt. eigenvalues --    0.88536   0.88569   0.88619   0.89405   0.91694
  Beta virt. eigenvalues --    0.91880   0.92498   0.92889   0.93128   0.93928
  Beta virt. eigenvalues --    0.93941   0.95139   0.96070   0.97442   0.98034
  Beta virt. eigenvalues --    0.98211   0.99152   0.99471   1.00832   1.02429
  Beta virt. eigenvalues --    1.02566   1.03078   1.03976   1.04088   1.04871
  Beta virt. eigenvalues --    1.06184   1.07045   1.07322   1.07568   1.08764
  Beta virt. eigenvalues --    1.08828   1.09341   1.09456   1.09748   1.10520
  Beta virt. eigenvalues --    1.12084   1.12727   1.13234   1.13596   1.13828
  Beta virt. eigenvalues --    1.14935   1.15439   1.16114   1.16163   1.16179
  Beta virt. eigenvalues --    1.16731   1.17603   1.19237   1.19843   1.20048
  Beta virt. eigenvalues --    1.20237   1.21397   1.22767   1.23434   1.23664
  Beta virt. eigenvalues --    1.23726   1.23756   1.23872   1.23952   1.24857
  Beta virt. eigenvalues --    1.25654   1.26218   1.26750   1.27106   1.27559
  Beta virt. eigenvalues --    1.27585   1.28138   1.30678   1.32057   1.36114
  Beta virt. eigenvalues --    1.36985   1.38230   1.39852   1.40521   1.41315
  Beta virt. eigenvalues --    1.45596   1.45928   1.48103   1.50620   1.56278
  Beta virt. eigenvalues --    1.56331   1.57426   1.57803   1.58208   1.58537
  Beta virt. eigenvalues --    1.59126   1.60352   1.61263   1.61514   1.63448
  Beta virt. eigenvalues --    1.63536   1.63746   1.64345   1.66172   1.67687
  Beta virt. eigenvalues --    1.68042   1.70594   1.70708   1.71388   1.72185
  Beta virt. eigenvalues --    1.72397   1.72429   1.73744   1.76090   1.76468
  Beta virt. eigenvalues --    1.76856   1.77635   1.78112   1.78525   1.81204
  Beta virt. eigenvalues --    1.81242   1.81657   1.83049   1.83440   1.84139
  Beta virt. eigenvalues --    1.84824   1.85138   1.85280   1.85402   1.85641
  Beta virt. eigenvalues --    1.87996   1.88106   1.90841   1.91619   1.91665
  Beta virt. eigenvalues --    1.92484   1.94817   1.96320   1.96377   1.99251
  Beta virt. eigenvalues --    2.00028   2.01998   2.04213   2.05471   2.05838
  Beta virt. eigenvalues --    2.08619   2.12345   2.13075   2.13527   2.13941
  Beta virt. eigenvalues --    2.15032   2.15702   2.16027   2.17949   2.18735
  Beta virt. eigenvalues --    2.18775   2.20681   2.21245   2.24134   2.24425
  Beta virt. eigenvalues --    2.25212   2.25369   2.26800   2.27826   2.29362
  Beta virt. eigenvalues --    2.31359   2.31724   2.31755   2.32515   2.32527
  Beta virt. eigenvalues --    2.33413   2.33950   2.35255   2.35285   2.36816
  Beta virt. eigenvalues --    2.37224   2.39710   2.39788   2.40960   2.41606
  Beta virt. eigenvalues --    2.42098   2.43980   2.46869   2.47649   2.47988
  Beta virt. eigenvalues --    2.48035   2.48949   2.51018   2.51045   2.51429
  Beta virt. eigenvalues --    2.53620   2.55512   2.56728   2.57113   2.58431
  Beta virt. eigenvalues --    2.59428   2.61993   2.62488   2.63191   2.65094
  Beta virt. eigenvalues --    2.66242   2.67083   2.68621   2.71926   2.73361
  Beta virt. eigenvalues --    2.74057   2.76293   2.80335   2.81189   2.82586
  Beta virt. eigenvalues --    2.86601   2.88261   2.88437   2.90939   2.92619
  Beta virt. eigenvalues --    2.95332   2.95354   2.97199   3.02146   3.08812
  Beta virt. eigenvalues --    3.10060   3.10963   3.14575   3.16400   3.17146
  Beta virt. eigenvalues --    3.18837   3.19172   3.26921   3.31297   3.31652
  Beta virt. eigenvalues --    3.35353   3.46013   3.47416   3.65682   3.65945
  Beta virt. eigenvalues --    3.83075   3.83119   3.98750   3.98932   4.08613
  Beta virt. eigenvalues --    4.09978   4.13036   4.16491   4.16735   4.18576
  Beta virt. eigenvalues --    4.20780   4.22436   4.25110   4.25843   4.28455
  Beta virt. eigenvalues --    4.31818   4.33708   4.35942   4.37245   4.43549
  Beta virt. eigenvalues --    4.45351   4.47102   4.54865   4.63449   4.73247
  Beta virt. eigenvalues --    4.74483   4.90869   4.98741
          Condensed to atoms (all electrons):
              1          2          3          4          5          6
     1  N    7.358932   0.224292  -0.083569  -0.196227  -0.332946   0.091395
     2  C    0.224292   8.710027  -0.609311  -0.860730  -2.555887  -0.106978
     3  C   -0.083569  -0.609311   9.471028   0.518784  -0.009942   0.426791
     4  C   -0.196227  -0.860730   0.518784  10.590805   0.623626  -0.009942
     5  C   -0.332946  -2.555887  -0.009942   0.623626  10.590808   0.518774
     6  C    0.091395  -0.106978   0.426791  -0.009942   0.518774   9.471028
     7  C    0.009455   0.777673  -0.106981  -2.555872  -0.860718  -0.609308
     8  N    0.002662   0.009455   0.091393  -0.332939  -0.196226  -0.083567
     9  O   -0.045648   0.250296  -0.031572  -0.040065   0.063358   0.048208
    10  O   -0.004383   0.000136   0.048209   0.063360  -0.040065  -0.031573
    11  H    0.000121   0.007053   0.003637  -0.030259   0.040992  -0.002325
    12  H    0.291816   0.003936  -0.002325   0.040992  -0.030258   0.003637
    13  C    0.030958  -0.088861  -0.131780  -0.221643   0.061208  -0.907645
    14  C    0.001036  -0.157934  -0.111497   0.060196  -0.537164  -0.932180
    15  C    0.002944  -0.047004  -0.014010  -0.073060   0.022148  -0.238133
    16  H    0.000000  -0.000047  -0.000003   0.000082   0.000181   0.003275
    17  C    0.023817   0.312641   0.083694   0.036058  -0.337077  -0.709106
    18  H   -0.000005  -0.002664  -0.000173  -0.000492  -0.000626  -0.005807
    19  C    0.091250  -0.346200  -0.320978  -0.225388  -1.364756  -1.992944
    20  H    0.002771   0.018713   0.015086  -0.013622   0.044651  -0.032963
    21  C   -0.081364  -0.346162  -0.338328   0.197485   0.908765   1.173928
    22  S    0.000177   0.005696   0.001995  -0.015634   0.013954   0.008329
    23  N   -0.001555   0.024492   0.030490  -0.072428   0.034399  -0.099090
    24  N    0.000074   0.006348   0.002152  -0.007588   0.036256   0.052672
    25  C   -0.017564  -0.071001  -0.932195  -0.537172   0.060195  -0.111499
    26  C    0.015761   0.203318  -0.907669   0.061197  -0.221642  -0.131784
    27  C   -0.112891   0.004991   1.173941   0.908770   0.197486  -0.338329
    28  C    0.026844  -0.016512  -1.992907  -1.364752  -0.225377  -0.320973
    29  H    0.001414   0.001395  -0.032963   0.044652  -0.013622   0.015086
    30  C    0.050993   0.040924  -0.709119  -0.337081   0.036059   0.083695
    31  H    0.000037  -0.000071  -0.005807  -0.000626  -0.000492  -0.000173
    32  C    0.043070  -0.023902  -0.238130   0.022151  -0.073060  -0.014010
    33  H    0.000036   0.000038   0.003275   0.000181   0.000082  -0.000003
    34  S   -0.029673  -0.008370   0.008331   0.013954  -0.015634   0.001995
    35  N   -0.002480   0.009663   0.052671   0.036256  -0.007588   0.002152
    36  N    0.059224   0.045657  -0.099091   0.034400  -0.072428   0.030490
              7          8          9         10         11         12
     1  N    0.009455   0.002662  -0.045648  -0.004383   0.000121   0.291816
     2  C    0.777673   0.009455   0.250296   0.000136   0.007053   0.003936
     3  C   -0.106981   0.091393  -0.031572   0.048209   0.003637  -0.002325
     4  C   -2.555872  -0.332939  -0.040065   0.063360  -0.030259   0.040992
     5  C   -0.860718  -0.196226   0.063358  -0.040065   0.040992  -0.030258
     6  C   -0.609308  -0.083567   0.048208  -0.031573  -0.002325   0.003637
     7  C    8.709997   0.224287   0.000136   0.250296   0.003937   0.007053
     8  N    0.224287   7.358928  -0.004383  -0.045648   0.291814   0.000121
     9  O    0.000136  -0.004383   8.297136  -0.000047   0.000019  -0.002569
    10  O    0.250296  -0.045648  -0.000047   8.297134  -0.002569   0.000019
    11  H    0.003937   0.291814   0.000019  -0.002569   0.328898   0.000000
    12  H    0.007053   0.000121  -0.002569   0.000019   0.000000   0.328898
    13  C    0.203319   0.015760   0.002554   0.001901   0.014685   0.000103
    14  C   -0.071003  -0.017565   0.000240  -0.000097  -0.009577  -0.000022
    15  C   -0.023903   0.043070  -0.004473   0.000150   0.000718   0.000012
    16  H    0.000038   0.000036   0.000006   0.000000   0.000000   0.000000
    17  C    0.040924   0.050993  -0.129745   0.000371  -0.001313   0.000438
    18  H   -0.000071   0.000037   0.000202   0.000000   0.000000   0.000000
    19  C   -0.016507   0.026845  -0.049121   0.001707  -0.016929   0.002599
    20  H    0.001395   0.001414  -0.000695   0.000005   0.000003  -0.000004
    21  C    0.004991  -0.112888   0.075667   0.010760  -0.033784  -0.001999
    22  S   -0.008370  -0.029673  -0.000045  -0.000242  -0.002442   0.000000
    23  N    0.045657   0.059223   0.000555  -0.006010   0.036230  -0.000001
    24  N    0.009663  -0.002480  -0.000067   0.000004   0.001349   0.000000
    25  C   -0.157933   0.001036  -0.000097   0.000240  -0.000022  -0.009577
    26  C   -0.088861   0.030958   0.001902   0.002554   0.000103   0.014683
    27  C   -0.346165  -0.081363   0.010760   0.075667  -0.001998  -0.033784
    28  C   -0.346193   0.091248   0.001708  -0.049120   0.002599  -0.016928
    29  H    0.018712   0.002771   0.000005  -0.000695  -0.000004   0.000003
    30  C    0.312642   0.023817   0.000371  -0.129745   0.000438  -0.001313
    31  H   -0.002664  -0.000005   0.000000   0.000202   0.000000   0.000000
    32  C   -0.047003   0.002944   0.000150  -0.004474   0.000012   0.000718
    33  H   -0.000047   0.000000   0.000000   0.000006   0.000000   0.000000
    34  S    0.005696   0.000177  -0.000242  -0.000045   0.000000  -0.002442
    35  N    0.006348   0.000074   0.000004  -0.000067   0.000000   0.001349
    36  N    0.024492  -0.001555  -0.006010   0.000555  -0.000001   0.036229
             13         14         15         16         17         18
     1  N    0.030958   0.001036   0.002944   0.000000   0.023817  -0.000005
     2  C   -0.088861  -0.157934  -0.047004  -0.000047   0.312641  -0.002664
     3  C   -0.131780  -0.111497  -0.014010  -0.000003   0.083694  -0.000173
     4  C   -0.221643   0.060196  -0.073060   0.000082   0.036058  -0.000492
     5  C    0.061208  -0.537164   0.022148   0.000181  -0.337077  -0.000626
     6  C   -0.907645  -0.932180  -0.238133   0.003275  -0.709106  -0.005807
     7  C    0.203319  -0.071003  -0.023903   0.000038   0.040924  -0.000071
     8  N    0.015760  -0.017565   0.043070   0.000036   0.050993   0.000037
     9  O    0.002554   0.000240  -0.004473   0.000006  -0.129745   0.000202
    10  O    0.001901  -0.000097   0.000150   0.000000   0.000371   0.000000
    11  H    0.014685  -0.009577   0.000718   0.000000  -0.001313   0.000000
    12  H    0.000103  -0.000022   0.000012   0.000000   0.000438   0.000000
    13  C    8.399082  -1.354944  -1.644063   0.016880   1.405771  -0.005469
    14  C   -1.354944  11.359767  -1.927861   0.093434  -0.819326  -0.005055
    15  C   -1.644063  -1.927861  11.305737   0.213563   0.112688   0.019482
[...]
 ,0.00000001,-0.00000079,0.00000116,0.,0.00001955,0.00000788,0.,0.00000
 054,-0.00000058,0.,-0.00000647,0.00001888,0.,-0.00000127,0.00000208,0.
 ,0.00001512,-0.00002002,0.00000002,-0.00000611,0.00000509,0.,0.0000046
 6,0.00001012,0.00000002,0.00000370,-0.00000568,0.,-0.00195762,0.001053
 34,0.00000007,-0.00000926,0.00045514,0.,0.00186245,0.00096586,0.000000
 04,-0.00100565,-0.00943170,0.00000019,-0.00013306,0.00074476,-0.000000
 05,0.00128507,-0.34836225,0.00000413,-0.00135317,0.36526945,0.00000003
 ,0.,-0.00043672,-0.00000005,-0.00000004,-0.00017338,-0.00000005,0.0000
 0002,0.00067846,-0.00000004,-0.00000008,0.00003253,0.00000008,0.000000
 06,0.00002582,0.00000005,0.00000001,0.00001587,-0.00000003,0.00000008,
 0.00002790,0.00000003,0.,-0.00001447,0.00000002,-0.00000003,0.00005269
 ,0.,-0.00000003,-0.00004520,0.00000002,0.,0.00001217,0.,0.,0.00006476,
 -0.00000011,0.00000001,0.00000079,0.00000002,-0.00000001,-0.00000054,0
 .00000003,0.00000001,0.00000232,0.,0.00000001,0.00000065,-0.00000003,0
 .,-0.00000211,0.,0.,0.00000096,0.00000004,-0.00000003,0.00000443,0.,0.
 ,0.00000246,-0.00000009,0.00000003,-0.00000340,0.,0.,0.00000624,0.0000
 0002,0.,-0.00000871,0.00000001,0.,-0.00000180,0.00000002,0.00000013,0.
 00831514,-0.00000002,0.,-0.00027677,-0.00000004,0.00000004,0.00537177,
 0.00000010,0.00000004,0.00264024,-0.00000002,-0.00000005,-0.00305267,0
 .00000009,0.00000414,-0.03913190,-0.00000015,-0.00000455,0.02674981,0.
 00189266,-0.00368323,0.00000046,-0.00201991,0.00013630,-0.00000042,-0.
 00556479,0.00310354,-0.00000039,-0.00058328,-0.00030830,-0.00000035,-0
 .00034086,0.00030242,0.00000039,-0.00054095,-0.00023647,0.00000004,0.0
 0048930,0.00027619,-0.00000010,0.00017370,0.00057002,0.00000040,0.0006
 9696,-0.00074526,0.00000007,-0.00009474,-0.00009539,0.00000002,-0.0001
 1092,-0.00003941,-0.00000005,0.00132248,0.00026973,-0.00000006,-0.0000
 5094,-0.00002881,-0.00000012,0.00004218,-0.00001964,0.00000050,-0.0000
 7230,-0.00011857,-0.00000030,-0.00000422,0.00001296,0.,0.00025045,0.00
 009441,-0.00000007,-0.00000311,-0.00000238,0.00000005,-0.00013928,0.00
 015453,0.00000010,-0.00014678,-0.00000123,-0.00000007,0.00006588,-0.00
 012221,-0.00000004,-0.00006665,0.00002899,-0.00000003,0.00006227,0.000
 05619,-0.00000014,0.00007103,-0.00005693,-0.00000001,-0.10874070,0.046
 91167,-0.00000079,0.01848207,0.02856810,-0.00000027,0.00006530,-0.0198
 3635,0.00000002,-0.05952798,0.01546477,0.00000037,-0.00335543,0.003501
 86,0.00000004,-0.31174931,-0.13750928,0.00000290,0.00383852,0.00134857
 ,0.00000009,0.76584249,0.00077359,-0.00312027,-0.00000003,-0.00081766,
 -0.00012087,-0.00000020,-0.00705555,0.00178964,-0.00000017,0.00034561,
 0.00127746,0.00000010,0.00105962,0.00014243,0.00000032,-0.00128733,-0.
 00067357,-0.00000011,-0.00024988,-0.00061290,0.00000006,-0.00035404,0.
 00036838,-0.00000012,0.00013624,-0.00033649,0.00000002,0.00064108,0.00
 097017,-0.00000006,-0.00018060,-0.00009534,0.00000002,0.00193675,0.000
 29368,0.00000003,-0.00021750,-0.00030557,-0.00000006,0.00009693,-0.000
 11432,0.00000032,-0.00011951,-0.00034390,-0.00000026,-0.00002244,0.000
 03132,-0.00000002,0.00059818,0.00020998,0.00000007,0.00001916,-0.00001
 347,0.,-0.00022137,0.00064894,-0.00000012,-0.00001910,0.00006556,0.,0.
 00052310,-0.00078311,0.00000030,-0.00021730,0.00009517,-0.00000003,0.0
 0014507,0.00026396,-0.00000002,0.00013475,-0.00014087,-0.00000011,0.03
 456010,-0.28115042,0.00000311,0.03405979,-0.01317571,-0.00000013,-0.00
 461164,-0.02667060,0.00000071,-0.01944162,0.05030787,-0.00000065,0.002
 58237,-0.00197088,0.00000008,-0.08183732,-0.19694594,0.00000232,-0.029
 45495,-0.01044897,0.00000033,-0.01784229,0.64514033,-0.00000058,0.0000
 0038,0.00001502,0.00000052,-0.00000092,0.00003576,-0.00000007,-0.00000
 069,-0.00097199,0.00000092,0.00000029,0.00025050,0.00000026,0.00000053
 ,0.00061599,0.00000003,-0.00000060,-0.00015622,0.00000077,-0.00000101,
 -0.00014976,-0.00000065,0.00000055,-0.00001817,-0.00000027,0.00000075,
 -0.00006787,-0.00000041,0.00000081,0.00000085,-0.00000006,0.00000002,0
 .00000445,-0.00000007,-0.00000002,-0.00000141,0.00000018,0.00000019,0.
 00004339,-0.00000012,-0.00000040,0.00002849,0.00000067,0.00000047,-0.0
 0004773,-0.00000004,0.00000003,0.00000183,-0.00000081,0.,0.00008909,0.
 ,-0.00000007,0.00000230,0.00000028,-0.00000065,-0.00021332,-0.00000004
 ,0.,0.00000716,-0.00000048,0.00000019,0.00001407,-0.00000005,0.0000006
 9,-0.00001809,-0.00000008,-0.00000023,0.00002810,0.00000033,-0.0000003
 5,-0.00000868,-0.00000038,0.00000311,-0.05614893,-0.00000033,-0.000000
 05,-0.00170056,-0.00000026,0.00000047,0.00042947,0.00000071,-0.0000008
 1,0.00299996,0.00000011,0.00000014,0.00555411,0.00000195,0.00000256,-0
 .05845532,0.00000038,0.00000021,0.00423919,-0.00000271,-0.00000685,0.1
 3670210,0.00000317,-0.00009036,0.,-0.00000332,-0.00002110,-0.00000001,
 -0.00036392,0.00022757,0.00000001,0.00010997,0.00010675,0.,0.00011715,
 0.00001055,-0.00000003,-0.00010030,-0.00010423,0.00000003,0.00012908,-
 0.00032956,0.00000003,-0.00009780,0.00009997,-0.00000002,-0.00001046,0
 .00001583,0.,-0.00024431,0.00018811,0.,-0.00000791,-0.00000364,0.,0.00
 003646,0.00000451,0.,-0.00001055,-0.00001963,-0.00000001,0.00000612,-0
 .00000631,-0.00000002,-0.00000418,-0.00002244,0.,-0.00000155,0.0000021
 6,0.,0.00003282,0.00001502,-0.00000001,0.00000090,-0.00000080,0.,-0.00
 001098,0.00003231,0.,0.00000016,0.00000407,0.,0.00002457,-0.00003955,0
 .00000001,-0.00001349,0.00000936,0.,0.00000760,0.00001604,0.00000002,0
 .00000655,-0.00001028,0.,0.00454477,-0.00168153,-0.00000003,0.00035411
 ,-0.00113222,0.00000007,0.00061910,-0.00071689,-0.00000003,-0.00281866
 ,-0.00308589,0.00000013,-0.00057524,0.00076816,-0.00000001,-0.01522368
 ,0.01362642,-0.00000009,0.00096153,0.00007272,-0.00000003,-0.28575178,
 0.12121227,-0.00000030,0.29738874,0.00004496,0.00011585,0.,-0.00006955
 ,0.00001384,0.,0.00032098,-0.00005379,-0.00000004,-0.00003499,-0.00011
 546,0.,-0.00007616,0.00001811,0.00000003,0.00011165,0.00004814,-0.0000
 0002,0.00005729,0.00004325,-0.00000003,0.00002161,-0.00001177,0.000000
 03,0.00002112,0.00000392,0.,-0.00009281,-0.00008672,0.,0.00001558,0.00
 001093,0.,-0.00016416,-0.00003597,0.,0.00002034,0.00002662,0.,-0.00000
 829,0.00000837,0.00000001,0.00001292,0.00003126,0.,0.00000215,-0.00000
 245,0.,-0.00005522,-0.00001565,0.00000001,-0.00000148,0.00000117,0.,0.
 00002138,-0.00006322,-0.00000001,-0.00000152,-0.00000566,0.,-0.0000497
 2,0.00007246,-0.00000002,0.00001760,-0.00000680,0.00000001,-0.00001119
 ,-0.00002492,-0.00000002,-0.00001117,0.00001251,0.,0.02887369,-0.00988
 206,0.00000010,-0.00244861,-0.00360413,0.00000011,-0.00061108,-0.00043
 523,0.,-0.00330145,-0.00175979,0.00000013,-0.00068649,0.00054491,-0.00
 000001,-0.01586177,0.01306641,0.00000002,0.00030588,0.00080668,-0.0000
 0007,0.12142830,-0.12441878,0.00000046,-0.12922195,0.12466431,0.,0.000
 00004,0.00016459,-0.00000001,-0.00000010,0.00015697,-0.00000008,-0.000
 00006,-0.00127425,0.,-0.00000005,0.00009931,0.00000012,0.00000009,-0.0
 0009013,0.00000004,-0.00000002,0.00000778,0.00000001,0.,0.00006873,0.,
 0.00000002,0.00001320,0.,0.00000001,-0.00003377,-0.00000002,0.00000003
 ,-0.00002071,0.00000002,0.,0.00000197,0.,0.,-0.00001393,-0.00000011,0.
 00000001,0.00000836,0.,-0.00000005,-0.00000375,0.00000007,0.00000004,0
 .00000182,0.,0.00000001,0.00000112,-0.00000009,0.,-0.00000334,0.,0.,0.
 00000065,0.00000006,-0.00000006,0.00000629,0.,0.,0.00000005,-0.0000001
 2,0.00000003,-0.00000397,0.,0.00000006,0.00000161,0.00000001,-0.000000
 02,-0.00000209,0.00000005,-0.00000002,-0.00000106,-0.00000048,0.000000
 26,0.00584581,0.00000005,0.00000013,0.00479496,-0.00000011,-0.00000001
 ,-0.00111914,0.00000022,0.00000018,0.00863174,0.,-0.00000002,-0.000870
 81,0.00000030,-0.00000016,0.00702866,-0.00000003,-0.00000009,-0.004801
 27,-0.00000020,0.00000046,-0.04060393,0.00000030,-0.00000066,0.0247630
 2,0.00187867,0.00198439,-0.00000007,-0.00109331,0.00012060,-0.00000003
 ,-0.00294366,-0.00273917,0.00000005,0.00189395,0.00127136,0.00000002,0
 .00087534,0.00082346,-0.00000001,-0.00069100,-0.00042456,0.00000002,0.
 00057471,-0.00225643,0.00000006,-0.00028480,0.00070269,-0.00000007,0.0
 0027865,0.00029267,0.,-0.00087685,0.00144674,-0.00000003,-0.00010905,-
 0.00006930,0.,-0.00573367,-0.00091997,0.00000003,-0.00009192,-0.000143
 10,-0.00000002,0.00006814,-0.00002318,0.,-0.00006681,-0.00021735,-0.00
 000001,-0.00001349,0.00001764,0.,0.00033309,0.00012613,0.,-0.00000151,
 -0.00000608,0.,-0.00013578,0.00028013,-0.00000003,-0.00005366,0.000020
 25,0.,0.00017490,-0.00031285,0.00000009,-0.00010470,0.00007929,-0.0000
 0002,0.00006713,0.00013443,0.00000003,0.00007205,-0.00010989,0.,-0.018
 47550,0.00212341,0.00000013,-0.05674751,-0.07977784,0.00000146,0.01189
 592,0.00597356,-0.00000007,-0.00141029,-0.00498645,0.00000007,0.000569
 38,0.00003192,-0.00000002,-0.00160355,0.00182435,-0.00000002,-0.000154
 96,-0.00019062,-0.00000002,-0.00449198,-0.00331433,0.00000012,0.000129
 64,0.00047974,-0.00000002,0.29148460,0.00277080,0.00078406,0.00000008,
 -0.00101877,0.00110245,-0.00000043,0.00168074,-0.00023699,-0.00000038,
 -0.00009260,-0.00055438,-0.00000004,-0.00015565,0.00023965,0.00000036,
 0.00011794,-0.00000019,-0.00000002,0.00081294,-0.00030086,0.00000015,0
 .00014984,0.00051834,-0.00000010,0.00031584,-0.00042490,0.00000005,-0.
 00059245,0.00003533,-0.00000006,0.00001683,0.00001201,0.00000001,-0.00
 379839,0.00067219,0.00000002,0.00007925,0.00011951,-0.00000018,-0.0000
 2110,0.00004932,0.00000050,0.00002730,0.00009451,-0.00000034,0.0000093
 0,-0.00000674,-0.00000003,-0.00015541,-0.00003904,-0.00000004,-0.00000
 783,0.00000519,0.,0.00003600,-0.00023932,0.00000002,-0.00008058,-0.000
 02454,-0.00000002,-0.00023339,0.00034469,0.00000035,0.00007933,-0.0000
 3299,-0.00000009,-0.00003196,-0.00009006,0.,-0.00002595,0.00004035,-0.
 00000010,-0.04480480,-0.11506946,0.00000185,-0.03235605,-0.06463467,0.
 00000131,0.01045365,0.00183310,0.00000017,0.00736883,-0.01227927,0.000
 00030,0.00064866,-0.00024100,0.,-0.01650659,-0.00248575,-0.00000011,-0
 .00058072,-0.00001328,-0.00000003,-0.00077767,0.01967175,0.00000009,0.
 00024156,-0.00023448,0.,0.04177524,0.36984035,-0.00000014,0.00000010,0
 .00041467,0.00000009,-0.00000026,0.00002963,-0.00000010,-0.00000011,-0
 .00055602,0.00000006,0.,-0.00012166,0.00000023,0.00000016,0.00010343,0
 .00000003,-0.00000009,-0.00006313,0.00000008,-0.00000015,0.00000041,-0
 .00000006,0.00000006,-0.00000490,-0.00000006,0.00000012,-0.00005316,-0
 .00000006,0.00000015,0.00000628,0.,-0.00000002,0.00002347,0.00000008,-
 0.00000003,-0.00038402,-0.00000009,0.,-0.00002745,-0.00000009,-0.00000
 011,0.00003091,0.00000015,0.00000013,-0.00001811,0.,0.00000001,0.00000
 159,-0.00000022,-0.00000001,0.00003077,0.,0.00000001,0.00000622,0.0000
 0012,-0.00000012,-0.00006304,0.00000002,0.00000001,0.00001223,-0.00000
 017,0.00000004,0.00002220,-0.00000002,0.00000017,0.00000360,0.00000004
 ,-0.00000003,0.00000685,0.00000012,-0.00000007,-0.00000534,0.00000066,
 0.00000172,0.01275274,0.00000080,0.00000147,0.01144142,-0.00000032,0.0
 0000005,0.00791916,0.00000003,0.00000014,0.00053653,-0.00000002,0.,-0.
 00100018,0.00000014,0.00000002,0.00003753,0.,-0.00000004,-0.00122481,0
 .00000029,-0.00000011,0.00840671,0.,0.00000001,-0.00024897,-0.00000187
 ,-0.00000438,0.05659036,-0.00212588,-0.00106409,0.00000007,0.00120655,
 -0.00107694,-0.00000011,-0.00176842,-0.00054691,0.,-0.00112267,0.00032
 414,-0.00000001,-0.00082369,-0.00056159,0.00000016,0.00058043,0.000226
 32,-0.00000005,-0.00030891,0.00107006,-0.00000006,-0.00017909,-0.00054
 936,0.00000008,-0.00032644,0.00043652,0.,0.00036347,-0.00063549,0.,0.0
 0009377,0.00006060,0.,0.00309990,-0.00084554,0.00000002,0.00005913,0.0
 0008753,0.,-0.00004470,0.00000971,0.00000012,0.00007010,0.00013487,-0.
 00000012,0.00000652,-0.00001112,0.,-0.00025770,-0.00007632,0.00000002,
 -0.00000097,0.00000378,0.,0.00012417,-0.00022940,-0.00000002,0.0000727
 4,-0.00001821,0.,-0.00017706,0.00016756,0.00000003,0.00007206,-0.00002
 558,0.,-0.00006805,-0.00008415,-0.00000004,-0.00006534,0.00005927,-0.0
 0000003,-0.26179081,-0.10122578,0.00000249,-0.06114074,0.02407088,0.00
 000008,-0.00706280,0.00147452,0.00000009,-0.00788168,0.01068347,-0.000
 00016,-0.00030832,-0.00014448,0.00000001,0.01886724,0.00290516,-0.0000
 0013,0.00034732,0.00007786,0.00000002,-0.00441186,-0.03127765,0.000000
 40,0.00046868,-0.00002566,0.,-0.05337626,0.01699607,-0.00000016,0.4363
 6292,0.00199029,0.00102956,-0.00000012,-0.00081668,0.00077132,0.000000
 26,-0.00059486,-0.00367781,0.00000033,0.00108104,0.00079971,0.00000003
 ,0.00094543,0.00037732,-0.00000022,-0.00038457,0.00016085,0.,-0.000695
 88,-0.00037616,-0.00000009,0.00013945,-0.00020169,0.00000005,0.0000926
 7,-0.00015326,-0.00000003,0.00040296,0.00028745,0.00000003,-0.00007060
 ,-0.00003199,0.,-0.00310412,0.00026671,0.,-0.00009813,-0.00014642,0.00
 000012,0.00004102,-0.00004624,-0.00000033,-0.00005636,-0.00014040,0.00
 000021,-0.00001024,0.00001249,0.00000002,0.00025225,0.00007571,0.00000
 004,0.00000857,-0.00000570,0.,-0.00008881,0.00031835,-0.00000004,0.000
 02144,0.00003414,0.00000001,0.00028536,-0.00038054,-0.00000020,-0.0001
 0993,0.00004043,0.00000007,0.00006813,0.00011183,0.,0.00005950,-0.0000
 6772,0.00000006,-0.12685421,-0.15537095,0.00000205,-0.03683322,0.02876
 026,-0.00000011,-0.00677404,-0.00424012,0.00000009,-0.00971782,0.01146
 014,-0.00000028,-0.00059338,0.00019864,-0.00000002,0.02563660,-0.00382
 080,0.00000016,-0.00126589,-0.00061319,0.00000004,-0.04587062,-0.05478
 266,0.00000074,0.00035681,0.00292435,-0.00000008,0.09081426,-0.1645329
 6,0.00000101,0.08408685,0.38797928,-0.00000011,0.00000003,-0.00016112,
 0.00000004,-0.00000027,-0.00012824,-0.00000010,-0.00000008,0.00045707,
 0.00000022,-0.00000008,-0.00031009,0.00000008,0.00000020,0.00009814,0.
 00000009,-0.00000014,-0.00000290,0.00000018,-0.00000011,-0.00001497,-0
 .00000016,0.00000016,0.00000079,0.,0.00000014,0.00002739,-0.00000010,0
 .00000014,0.00001311,0.00000001,0.00000002,-0.00000552,0.,0.,0.0005036
 8,-0.00000009,0.00000008,0.00000185,0.00000008,-0.00000008,0.00000501,
 0.00000020,0.00000010,-0.00000853,-0.00000003,0.00000003,-0.00000103,-
 0.00000019,0.,0.00001180,0.00000001,-0.00000002,-0.00000179,0.00000009
 ,-0.00000022,-0.00000689,-0.00000004,-0.00000001,-0.00000545,-0.000000
 24,0.00000010,-0.00001099,0.,0.00000015,-0.00000535,-0.00000003,-0.000
 00008,0.00001186,0.00000006,-0.00000008,0.00000067,0.00000264,0.000001
 99,-0.06162549,0.00000091,-0.00000039,0.01196415,0.,0.00000009,0.00408
 825,0.00000031,-0.00000013,-0.00175551,0.00000004,0.00000002,-0.000134
 25,-0.00000053,0.00000008,0.00521970,0.00000002,0.00000002,0.00092081,
 0.00000082,0.00000072,-0.00442873,0.,-0.00000009,-0.00239697,-0.000001
 20,0.00000145,-0.04837083,-0.00000311,-0.00000465,0.07475160,-0.014697
 46,0.00038623,0.00000013,0.00092299,-0.00343549,0.00000005,0.00398850,
 0.00454946,-0.00000008,-0.00225178,-0.00104756,-0.00000004,-0.00131609
 ,-0.00084570,0.00000003,0.00059106,-0.00012525,0.,-0.00036742,0.001578
 65,-0.00000009,-0.00026119,-0.00056897,0.00000012,-0.00021846,0.000580
 13,-0.00000001,0.00046824,-0.00091601,0.00000003,0.00011508,0.00004271
 ,0.,0.00155045,-0.00163262,0.,0.00005980,0.00008441,0.00000002,-0.0000
 4558,0.00000836,-0.00000003,0.00006271,0.00014539,0.00000002,0.0000076
 0,-0.00001122,0.00000001,-0.00025539,-0.00008611,0.,-0.00000006,0.0000
 0464,0.00000001,0.00012437,-0.00020618,0.00000002,0.00007000,-0.000016
 68,0.,-0.00011331,0.00016993,-0.00000012,0.00006716,-0.00003167,0.0000
 0004,-0.00005977,-0.00008763,-0.00000003,-0.00006781,0.00006805,0.,0.0
 1114567,0.00245598,-0.00000007,-0.09782870,-0.01197571,0.00000035,-0.0
 0352059,-0.04120604,0.00000045,-0.00864990,0.00515685,0.,0.00029008,-0
 .00146751,0.00000004,0.00490457,-0.00145647,-0.00000001,0.00035374,0.0
 0008919,0.00000003,-0.00552756,-0.00028240,0.00000006,0.00029700,0.000
 97808,0.00000002,-0.16183596,0.01765974,0.00000045,-0.05855361,0.02765
 677,0.00000010,0.33055166,-0.00174963,0.00633285,-0.00000014,0.0007746
 8,-0.00020299,0.00000014,0.01210184,-0.00528037,0.00000017,-0.00277159
 ,-0.00097798,0.00000009,-0.00005745,-0.00067187,-0.00000011,0.00065474
 ,0.00052580,-0.00000001,-0.00071233,0.00225852,-0.00000006,0.00053952,
 -0.00065132,-0.00000002,-0.00009042,0.00039652,-0.00000002,0.00092647,
 -0.00154519,0.00000003,0.00012757,0.00007455,0.,-0.00017953,-0.0039468
 7,0.00000004,0.00010634,0.00019604,0.00000007,-0.00007391,0.00006479,-
 0.00000016,0.00005635,0.00026382,0.00000007,0.00001605,-0.00002491,0.0
 0000001,-0.00039634,-0.00017035,0.00000004,-0.00001367,0.00001005,0.,0
 .00013316,-0.00035430,-0.00000003,0.00004028,-0.00004288,0.00000002,-0
 .00017081,0.00042638,-0.00000010,0.00013438,-0.00009044,0.00000003,-0.
 00008749,-0.00017555,0.00000002,-0.00008432,0.00011188,0.00000002,0.07
 120190,-0.04450146,0.00000046,0.00380787,-0.34772095,0.00000361,-0.035
 39639,-0.03651091,0.00000061,-0.00776287,0.01377669,-0.00000019,-0.000
 21147,-0.00067161,0.00000003,0.01001981,-0.00222505,0.00000005,0.00009
 890,0.00002232,0.,0.00506554,-0.00505204,-0.00000003,-0.00052381,-0.00
 165621,0.,-0.05483112,-0.03392189,0.00000014,-0.00447691,-0.04701994,0
 .00000091,0.00378463,0.50895485,0.00000018,-0.00000026,0.00160893,-0.0
 0000008,0.00000040,0.00074626,-0.00000002,0.00000023,-0.00112490,0.000
 00003,0.00000006,0.00003730,-0.00000042,-0.00000027,-0.00036225,-0.000
 00006,0.00000010,0.00030776,-0.00000006,0.00000014,0.00004062,0.000000
 02,-0.00000005,-0.00011670,0.00000006,-0.00000014,0.00008077,0.0000000
 7,-0.00000017,0.00002195,-0.00000004,0.00000004,-0.00000266,0.00000003
 ,0.00000004,-0.00351517,0.00000023,0.00000003,-0.00000558,0.00000014,0
 .00000019,-0.00004372,-0.00000021,-0.00000019,0.00002800,-0.00000002,-
 0.00000002,-0.00000212,0.00000034,0.,-0.00005003,0.,-0.00000004,-0.000
 00876,-0.00000021,0.00000015,0.00009961,-0.00000003,-0.00000002,-0.000
 01565,0.00000029,-0.00000006,-0.00010920,0.,-0.00000025,0.00000672,-0.
 00000005,0.00000004,-0.00002027,-0.00000019,0.00000008,0.00001182,-0.0
 0000069,0.00000075,0.01350639,0.00000009,0.00000370,-0.06269685,0.0000
 0076,0.00000065,-0.00381823,-0.00000008,-0.00000008,0.00379758,0.00000
 003,0.00000003,0.00129237,0.,0.00000001,-0.00165481,-0.00000001,0.0000
 0004,0.00000877,-0.00000043,0.00000008,0.00352220,0.00000002,-0.000000
 01,-0.00010852,0.00000143,-0.00000037,-0.04623511,0.00000039,0.0000008
 6,0.02129875,-0.00000150,-0.00000568,0.07347474||0.00000092,0.00000053
 ,0.00000016,-0.00000026,-0.00000129,-0.00000019,0.00000034,-0.00000085
 ,-0.00000048,-0.00000213,0.00000071,-0.00000024,0.00000211,-0.00000074
 ,-0.00000006,-0.00000035,0.00000080,0.00000028,0.00000024,0.00000136,0
 .00000149,-0.00000087,-0.00000053,-0.00000054,0.00000174,0.00000039,0.
 00000007,-0.00000175,-0.00000038,-0.00000047,-0.00000007,0.00000199,-0
 .00000020,0.00000007,-0.00000198,0.00000013,0.00000150,0.00000245,0.00
 000025,-0.00000102,0.00000114,0.00000035,0.00000275,0.00000528,0.00000
 013,0.00000101,0.00000251,-0.00000001,-0.00000075,0.00000047,0.,0.0000
 0220,0.00000242,-0.00000004,0.00000145,0.00000052,0.00000008,0.0000013
 2,0.00000108,-0.00000006,0.00000037,0.00000432,0.00000005,0.00000156,-
 0.00000070,0.00000100,-0.00000300,0.00000238,-0.00000077,-0.00000201,0
 .00000696,-0.00000095,0.00000098,-0.00000118,-0.00000003,-0.00000151,-
 0.00000244,0.00000010,-0.00000031,-0.00000433,0.00000005,-0.00000141,-
 0.00000049,0.,-0.00000130,-0.00000107,0.00000002,0.00000073,-0.0000004
 4,0.,-0.00000220,-0.00000240,0.,-0.00000280,-0.00000527,0.,-0.00000100
 ,-0.00000251,0.,-0.00000154,0.00000075,0.00000006,0.00000203,-0.000007
 00,-0.00000002,0.00000296,-0.00000243,-0.00000013|||@


 BLESSED ARE THOSE WHO NOUGHT EXPECT,
 FOR THEY SHALL NOT BE DISAPPOINTED..  WALCOT - ODE TO PITT
 Job cpu time:  0 days  7 hours 19 minutes 32.0 seconds.
 File lengths (MBytes):  RWF=   2300 Int=      0 D2E=      0 Chk=     29 Scr=      1
 Normal termination of Gaussian 09 at Mon Sep 25 18:27:25 2023.
