 Entering Link 1 = C:\G09W\l1.exe PID=     18168.
  
 Copyright (c) 1988,1990,1992,1993,1995,1998,2003,2009,2010,
            Gaussian, Inc.  All Rights Reserved.
  
 This is part of the Gaussian(R) 09 program.  It is based on
 the Gaussian(R) 03 system (copyright 2003, Gaussian, Inc.),
 the Gaussian(R) 98 system (copyright 1998, Gaussian, Inc.),
 the Gaussian(R) 94 system (copyright 1995, Gaussian, Inc.),
 the Gaussian 92(TM) system (copyright 1992, Gaussian, Inc.),
 the Gaussian 90(TM) system (copyright 1990, Gaussian, Inc.),
 the Gaussian 88(TM) system (copyright 1988, Gaussian, Inc.),
 the Gaussian 86(TM) system (copyright 1986, Carnegie Mellon
 University), and the Gaussian 82(TM) system (copyright 1983,
 Carnegie Mellon University). Gaussian is a federally registered
 trademark of Gaussian, Inc.
  
 This software contains proprietary and confidential information,
 including trade secrets, belonging to Gaussian, Inc.
  
 This software is provided under written license and may be
 used, copied, transmitted, or stored only in accord with that
 written license.
  
 The following legend is applicable only to US Government
 contracts under FAR:
  
                    RESTRICTED RIGHTS LEGEND
  
 Use, reproduction and disclosure by the US Government is
 subject to restrictions as set forth in subparagraphs (a)
 and (c) of the Commercial Computer Software - Restricted
 Rights clause in FAR 52.227-19.
  
 Gaussian, Inc.
 340 Quinnipiac St., Bldg. 40, Wallingford CT 06492
  
  
 ---------------------------------------------------------------
 Warning -- This program may not be used in any manner that
 competes with the business of Gaussian, Inc. or will provide
 assistance to any competitor of Gaussian, Inc.  The licensee
 of this program is prohibited from giving any competitor of
 Gaussian, Inc. access to this program.  By using this program,
 the user acknowledges that Gaussian, Inc. is engaged in the
 business of creating and licensing software in the field of
 computational chemistry and represents and warrants to the
 licensee that it is not a competitor of Gaussian, Inc. and that
 it will not use this program in any manner prohibited above.
 ---------------------------------------------------------------
  

 Cite this work as:
 Gaussian 09, Revision B.01,
 M. J. Frisch, G. W. Trucks, H. B. Schlegel, G. E. Scuseria, 
 M. A. Robb, J. R. Cheeseman, G. Scalmani, V. Barone, B. Mennucci, 
 G. A. Petersson, H. Nakatsuji, M. Caricato, X. Li, H. P. Hratchian, 
 A. F. Izmaylov, J. Bloino, G. Zheng, J. L. Sonnenberg, M. Hada, 
 M. Ehara, K. Toyota, R. Fukuda, J. Hasegawa, M. Ishida, T. Nakajima, 
 Y. Honda, O. Kitao, H. Nakai, T. Vreven, J. A. Montgomery, Jr., 
 J. E. Peralta, F. Ogliaro, M. Bearpark, J. J. Heyd, E. Brothers, 
 K. N. Kudin, V. N. Staroverov, T. Keith, R. Kobayashi, J. Normand, 
 K. Raghavachari, A. Rendell, J. C. Burant, S. S. Iyengar, J. Tomasi, 
 M. Cossi, N. Rega, J. M. Millam, M. Klene, J. E. Knox, J. B. Cross, 
 V. Bakken, C. Adamo, J. Jaramillo, R. Gomperts, R. E. Stratmann, 
 O. Yazyev, A. J. Austin, R. Cammi, C. Pomelli, J. W. Ochterski, 
 R. L. Martin, K. Morokuma, V. G. Zakrzewski, G. A. Voth, 
 P. Salvador, J. J. Dannenberg, S. Dapprich, A. D. Daniels, 
 O. Farkas, J. B. Foresman, J. V. Ortiz, J. Cioslowski, 
 and D. J. Fox, Gaussian, Inc., Wallingford CT, 2010.
 
 ******************************************
 Gaussian 09:  IA32W-G09RevB.01 12-Aug-2010
                17-Jul-2023 
 ******************************************
 %nprocshared=6
 Will use up to    6 processors via shared memory.
 %chk=G:\Meu Drive\POS-DOC-IME\SUBSTITUINTES-DOADORES\DPP-substituido\DPP-SUB-2-C
 ATION.chk
 ----------------------------------------------
 # opt freq b3lyp/6-31+g(d,p) geom=connectivity
 ----------------------------------------------
 1/14=-1,18=20,19=15,26=3,38=1,57=2/1,3;
 2/9=110,12=2,17=6,18=5,40=1/2;
 3/5=1,6=6,7=111,11=2,16=1,25=1,30=1,71=1,74=-5/1,2,3;
 4//1;
 5/5=2,38=5/2;
 6/7=2,8=2,9=2,10=2,28=1/1;
 7//1,2,3,16;
 1/14=-1,18=20,19=15/3(2);
 2/9=110/2;
 99//99;
 2/9=110/2;
 3/5=1,6=6,7=111,11=2,16=1,25=1,30=1,71=1,74=-5/1,2,3;
 4/5=5,16=3/1;
 5/5=2,38=5/2;
 7//1,2,3,16;
 1/14=-1,18=20,19=15/3(-5);
 2/9=110/2;
 6/7=2,8=2,9=2,10=2,19=2,28=1/1;
 99/9=1/99;
 -------
 Energy:
 -------
 Symbolic Z-matrix:
 Charge =  1 Multiplicity = 2
 N                     1.12975   2.22892   0.00011 
 C                    -0.28729   2.18586   0.00011 
 C                     1.72323   0.97115  -0.00001 
 C                     0.68182   0.05285  -0.00005 
 C                    -0.57066   0.75348   0.00003 
 C                    -1.60889  -0.16861  -0.00001 
 C                     0.40494  -1.37651  -0.00014 
 N                    -1.01011  -1.42496  -0.00013 
 O                    -0.99057   3.19182   0.00021 
 O                     1.11753  -2.37838  -0.00025 
 H                    -1.49268  -2.31034  -0.00012 
 H                     1.61419   3.11335   0.00011 
 C                    -3.05287   0.01132   0.00002 
 C                    -3.92536  -1.07311   0.00001 
 C                    -3.59624   1.33561   0.00006 
 C                    -5.33044  -0.89673   0.00004 
 H                    -3.55354  -2.09401  -0.00005 
 C                    -4.95536   1.52949   0.0001 
 H                    -2.92198   2.18648   0.00005 
 C                    -5.8643    0.43405   0.0001 
 C                    -6.22995  -2.00047   0.00003 
 H                    -5.35375   2.54062   0.00013 
 C                    -7.27319   0.60879   0.00013 
 C                    -7.59264  -1.79748   0.00007 
 H                    -5.82445  -3.00912  -0.00001 
 H                    -7.6757    1.61829   0.00017 
 C                    -8.11939  -0.4807    0.00012 
 H                    -8.26946  -2.64671   0.00006 
 H                    -9.19538  -0.33353   0.00015 
 C                     3.16594   0.78546  -0.00004 
 C                     3.69779  -0.50224   0.00003 
 C                     4.06121   1.90121  -0.00012 
 C                     5.09709  -0.71769  -0.00001 
 H                     3.03263  -1.36211   0.00012 
 C                     5.42159   1.71467  -0.00016 
 H                     3.6779    2.91665  -0.00015 
 C                     5.98547   0.40785  -0.0001 
 C                     5.64756  -2.03123   0.00006 
 H                     6.08684   2.57397  -0.00022 
 C                     7.38642   0.17981  -0.00014 
 C                     7.01235  -2.21994   0.00002 
 H                     4.96988  -2.88035   0.00013 
 H                     8.05905   1.03365  -0.00021 
 C                     7.8891   -1.10511  -0.00008 
 H                     7.42283  -3.22528   0.00007 
 H                     8.96299  -1.26751  -0.0001 
 

 GradGradGradGradGradGradGradGradGradGradGradGradGradGradGradGradGradGrad
 Berny optimization.
 Initialization pass.
                           ----------------------------
                           !    Initial Parameters    !
                           ! (Angstroms and Degrees)  !
 --------------------------                            --------------------------
 ! Name  Definition              Value          Derivative Info.                !
 --------------------------------------------------------------------------------
 ! R1    R(1,2)                  1.4177         estimate D2E/DX2                !
 ! R2    R(1,3)                  1.3908         estimate D2E/DX2                !
 ! R3    R(1,12)                 1.0084         estimate D2E/DX2                !
 ! R4    R(2,5)                  1.4601         estimate D2E/DX2                !
 ! R5    R(2,9)                  1.2274         estimate D2E/DX2                !
 ! R6    R(3,4)                  1.3885         estimate D2E/DX2                !
 ! R7    R(3,30)                 1.4546         estimate D2E/DX2                !
 ! R8    R(4,5)                  1.4351         estimate D2E/DX2                !
 ! R9    R(4,7)                  1.4559         estimate D2E/DX2                !
 ! R10   R(5,6)                  1.3886         estimate D2E/DX2                !
 ! R11   R(6,8)                  1.3917         estimate D2E/DX2                !
 ! R12   R(6,13)                 1.4551         estimate D2E/DX2                !
 ! R13   R(7,8)                  1.4159         estimate D2E/DX2                !
 ! R14   R(7,10)                 1.2294         estimate D2E/DX2                !
 ! R15   R(8,11)                 1.0084         estimate D2E/DX2                !
 ! R16   R(13,14)                1.3918         estimate D2E/DX2                !
 ! R17   R(13,15)                1.4314         estimate D2E/DX2                !
 ! R18   R(14,16)                1.4161         estimate D2E/DX2                !
 ! R19   R(14,17)                1.0865         estimate D2E/DX2                !
 ! R20   R(15,18)                1.3729         estimate D2E/DX2                !
 ! R21   R(15,19)                1.0856         estimate D2E/DX2                !
 ! R22   R(16,20)                1.4339         estimate D2E/DX2                !
 ! R23   R(16,21)                1.4239         estimate D2E/DX2                !
 ! R24   R(18,20)                1.4234         estimate D2E/DX2                !
 ! R25   R(18,22)                1.0868         estimate D2E/DX2                !
 ! R26   R(20,23)                1.4197         estimate D2E/DX2                !
 ! R27   R(21,24)                1.3777         estimate D2E/DX2                !
 ! R28   R(21,25)                1.0871         estimate D2E/DX2                !
 ! R29   R(23,26)                1.0868         estimate D2E/DX2                !
 ! R30   R(23,27)                1.3795         estimate D2E/DX2                !
 ! R31   R(24,27)                1.4182         estimate D2E/DX2                !
 ! R32   R(24,28)                1.0859         estimate D2E/DX2                !
 ! R33   R(27,29)                1.086          estimate D2E/DX2                !
 ! R34   R(30,31)                1.3932         estimate D2E/DX2                !
 ! R35   R(30,32)                1.4305         estimate D2E/DX2                !
 ! R36   R(31,33)                1.4158         estimate D2E/DX2                !
 ! R37   R(31,34)                1.0871         estimate D2E/DX2                !
 ! R38   R(32,35)                1.3731         estimate D2E/DX2                !
 ! R39   R(32,36)                1.0854         estimate D2E/DX2                !
 ! R40   R(33,37)                1.4339         estimate D2E/DX2                !
 ! R41   R(33,38)                1.4242         estimate D2E/DX2                !
 ! R42   R(35,37)                1.4233         estimate D2E/DX2                !
 ! R43   R(35,39)                1.0867         estimate D2E/DX2                !
 ! R44   R(37,40)                1.4194         estimate D2E/DX2                !
 ! R45   R(38,41)                1.3778         estimate D2E/DX2                !
 ! R46   R(38,42)                1.0864         estimate D2E/DX2                !
 ! R47   R(40,43)                1.087          estimate D2E/DX2                !
 ! R48   R(40,44)                1.3798         estimate D2E/DX2                !
 ! R49   R(41,44)                1.4183         estimate D2E/DX2                !
 ! R50   R(41,45)                1.0859         estimate D2E/DX2                !
 ! R51   R(44,46)                1.0861         estimate D2E/DX2                !
 ! A1    A(2,1,3)              113.52           estimate D2E/DX2                !
 ! A2    A(2,1,12)             120.452          estimate D2E/DX2                !
 ! A3    A(3,1,12)             126.0279         estimate D2E/DX2                !
 ! A4    A(1,2,5)              102.931          estimate D2E/DX2                !
 ! A5    A(1,2,9)              123.2172         estimate D2E/DX2                !
 ! A6    A(5,2,9)              133.8517         estimate D2E/DX2                !
 ! A7    A(1,3,4)              106.1446         estimate D2E/DX2                !
 ! A8    A(1,3,30)             122.5949         estimate D2E/DX2                !
 ! A9    A(4,3,30)             131.2605         estimate D2E/DX2                !
 ! A10   A(3,4,5)              109.3723         estimate D2E/DX2                !
 ! A11   A(3,4,7)              142.3679         estimate D2E/DX2                !
 ! A12   A(5,4,7)              108.2598         estimate D2E/DX2                !
 ! A13   A(2,5,4)              108.032          estimate D2E/DX2                !
 ! A14   A(2,5,6)              142.7998         estimate D2E/DX2                !
 ! A15   A(4,5,6)              109.1682         estimate D2E/DX2                !
 ! A16   A(5,6,8)              106.1266         estimate D2E/DX2                !
 ! A17   A(5,6,13)             131.2878         estimate D2E/DX2                !
 ! A18   A(8,6,13)             122.5855         estimate D2E/DX2                !
 ! A19   A(4,7,8)              102.9239         estimate D2E/DX2                !
 ! A20   A(4,7,10)             133.6146         estimate D2E/DX2                !
 ! A21   A(8,7,10)             123.4615         estimate D2E/DX2                !
 ! A22   A(6,8,7)              113.5215         estimate D2E/DX2                !
 ! A23   A(6,8,11)             125.9249         estimate D2E/DX2                !
 ! A24   A(7,8,11)             120.5535         estimate D2E/DX2                !
 ! A25   A(6,13,14)            121.7157         estimate D2E/DX2                !
 ! A26   A(6,13,15)            119.4116         estimate D2E/DX2                !
 ! A27   A(14,13,15)           118.8727         estimate D2E/DX2                !
 ! A28   A(13,14,16)           121.6635         estimate D2E/DX2                !
 ! A29   A(13,14,17)           121.1697         estimate D2E/DX2                !
 ! A30   A(16,14,17)           117.1668         estimate D2E/DX2                !
 ! A31   A(13,15,18)           120.4271         estimate D2E/DX2                !
 ! A32   A(13,15,19)           119.2961         estimate D2E/DX2                !
 ! A33   A(18,15,19)           120.2768         estimate D2E/DX2                !
 ! A34   A(14,16,20)           119.014          estimate D2E/DX2                !
 ! A35   A(14,16,21)           122.0239         estimate D2E/DX2                !
 ! A36   A(20,16,21)           118.9621         estimate D2E/DX2                !
 ! A37   A(15,18,20)           121.5661         estimate D2E/DX2                !
 ! A38   A(15,18,22)           119.623          estimate D2E/DX2                !
 ! A39   A(20,18,22)           118.8109         estimate D2E/DX2                !
 ! A40   A(16,20,18)           118.4566         estimate D2E/DX2                !
 ! A41   A(16,20,23)           118.9292         estimate D2E/DX2                !
 ! A42   A(18,20,23)           122.6142         estimate D2E/DX2                !
 ! A43   A(16,21,24)           120.7061         estimate D2E/DX2                !
 ! A44   A(16,21,25)           118.9197         estimate D2E/DX2                !
 ! A45   A(24,21,25)           120.3742         estimate D2E/DX2                !
 ! A46   A(20,23,26)           118.8088         estimate D2E/DX2                !
 ! A47   A(20,23,27)           120.7662         estimate D2E/DX2                !
 ! A48   A(26,23,27)           120.425          estimate D2E/DX2                !
 ! A49   A(21,24,27)           120.2756         estimate D2E/DX2                !
 ! A50   A(21,24,28)           120.0813         estimate D2E/DX2                !
 ! A51   A(27,24,28)           119.6431         estimate D2E/DX2                !
 ! A52   A(23,27,24)           120.3608         estimate D2E/DX2                !
 ! A53   A(23,27,29)           120.0483         estimate D2E/DX2                !
 ! A54   A(24,27,29)           119.5909         estimate D2E/DX2                !
 ! A55   A(3,30,31)            119.7761         estimate D2E/DX2                !
 ! A56   A(3,30,32)            121.4089         estimate D2E/DX2                !
 ! A57   A(31,30,32)           118.815          estimate D2E/DX2                !
 ! A58   A(30,31,33)           121.1948         estimate D2E/DX2                !
 ! A59   A(30,31,34)           119.8339         estimate D2E/DX2                !
 ! A60   A(33,31,34)           118.9713         estimate D2E/DX2                !
 ! A61   A(30,32,35)           120.9354         estimate D2E/DX2                !
 ! A62   A(30,32,36)           120.5765         estimate D2E/DX2                !
 ! A63   A(35,32,36)           118.4882         estimate D2E/DX2                !
 ! A64   A(31,33,37)           119.5307         estimate D2E/DX2                !
 ! A65   A(31,33,38)           121.4902         estimate D2E/DX2                !
 ! A66   A(37,33,38)           118.9791         estimate D2E/DX2                !
 ! A67   A(32,35,37)           121.1476         estimate D2E/DX2                !
 ! A68   A(32,35,39)           119.9387         estimate D2E/DX2                !
 ! A69   A(37,35,39)           118.9138         estimate D2E/DX2                !
 ! A70   A(33,37,35)           118.3766         estimate D2E/DX2                !
 ! A71   A(33,37,40)           119.0388         estimate D2E/DX2                !
 ! A72   A(35,37,40)           122.5846         estimate D2E/DX2                !
 ! A73   A(33,38,41)           120.6096         estimate D2E/DX2                !
 ! A74   A(33,38,42)           118.6695         estimate D2E/DX2                !
 ! A75   A(41,38,42)           120.7209         estimate D2E/DX2                !
 ! A76   A(37,40,43)           118.9852         estimate D2E/DX2                !
 ! A77   A(37,40,44)           120.6108         estimate D2E/DX2                !
 ! A78   A(43,40,44)           120.404          estimate D2E/DX2                !
 ! A79   A(38,41,44)           120.3105         estimate D2E/DX2                !
 ! A80   A(38,41,45)           120.0826         estimate D2E/DX2                !
 ! A81   A(44,41,45)           119.6069         estimate D2E/DX2                !
 ! A82   A(40,44,41)           120.4512         estimate D2E/DX2                !
 ! A83   A(40,44,46)           119.9653         estimate D2E/DX2                !
 ! A84   A(41,44,46)           119.5836         estimate D2E/DX2                !
 ! D1    D(3,1,2,5)              0.0017         estimate D2E/DX2                !
 ! D2    D(3,1,2,9)            179.9991         estimate D2E/DX2                !
 ! D3    D(12,1,2,5)           179.9971         estimate D2E/DX2                !
 ! D4    D(12,1,2,9)            -0.0056         estimate D2E/DX2                !
 ! D5    D(2,1,3,4)             -0.0014         estimate D2E/DX2                !
 ! D6    D(2,1,3,30)           179.9995         estimate D2E/DX2                !
 ! D7    D(12,1,3,4)          -179.9964         estimate D2E/DX2                !
 ! D8    D(12,1,3,30)            0.0045         estimate D2E/DX2                !
 ! D9    D(1,2,5,4)             -0.0014         estimate D2E/DX2                !
 ! D10   D(1,2,5,6)            179.9993         estimate D2E/DX2                !
 ! D11   D(9,2,5,4)           -179.9983         estimate D2E/DX2                !
 ! D12   D(9,2,5,6)              0.0024         estimate D2E/DX2                !
 ! D13   D(1,3,4,5)              0.0004         estimate D2E/DX2                !
 ! D14   D(1,3,4,7)           -179.9995         estimate D2E/DX2                !
 ! D15   D(30,3,4,5)           179.9994         estimate D2E/DX2                !
 ! D16   D(30,3,4,7)            -0.0005         estimate D2E/DX2                !
 ! D17   D(1,3,30,31)          179.9917         estimate D2E/DX2                !
 ! D18   D(1,3,30,32)           -0.0079         estimate D2E/DX2                !
 ! D19   D(4,3,30,31)           -0.0071         estimate D2E/DX2                !
 ! D20   D(4,3,30,32)          179.9932         estimate D2E/DX2                !
 ! D21   D(3,4,5,2)              0.0007         estimate D2E/DX2                !
 ! D22   D(3,4,5,6)           -179.9998         estimate D2E/DX2                !
 ! D23   D(7,4,5,2)           -179.9994         estimate D2E/DX2                !
 ! D24   D(7,4,5,6)              0.0001         estimate D2E/DX2                !
 ! D25   D(3,4,7,8)           -179.9995         estimate D2E/DX2                !
 ! D26   D(3,4,7,10)            -0.0015         estimate D2E/DX2                !
 ! D27   D(5,4,7,8)              0.0006         estimate D2E/DX2                !
 ! D28   D(5,4,7,10)           179.9987         estimate D2E/DX2                !
 ! D29   D(2,5,6,8)            179.9984         estimate D2E/DX2                !
 ! D30   D(2,5,6,13)            -0.0001         estimate D2E/DX2                !
 ! D31   D(4,5,6,8)             -0.0009         estimate D2E/DX2                !
 ! D32   D(4,5,6,13)          -179.9994         estimate D2E/DX2                !
 ! D33   D(5,6,8,7)              0.0013         estimate D2E/DX2                !
 ! D34   D(5,6,8,11)           179.9951         estimate D2E/DX2                !
 ! D35   D(13,6,8,7)          -179.9999         estimate D2E/DX2                !
 ! D36   D(13,6,8,11)           -0.0061         estimate D2E/DX2                !
 ! D37   D(5,6,13,14)         -179.9983         estimate D2E/DX2                !
 ! D38   D(5,6,13,15)            0.0022         estimate D2E/DX2                !
 ! D39   D(8,6,13,14)            0.0034         estimate D2E/DX2                !
 ! D40   D(8,6,13,15)         -179.9962         estimate D2E/DX2                !
 ! D41   D(4,7,8,6)             -0.0012         estimate D2E/DX2                !
 ! D42   D(4,7,8,11)          -179.9954         estimate D2E/DX2                !
 ! D43   D(10,7,8,6)          -179.9995         estimate D2E/DX2                !
 ! D44   D(10,7,8,11)            0.0063         estimate D2E/DX2                !
 ! D45   D(6,13,14,16)         179.9998         estimate D2E/DX2                !
 ! D46   D(6,13,14,17)          -0.0009         estimate D2E/DX2                !
 ! D47   D(15,13,14,16)         -0.0007         estimate D2E/DX2                !
 ! D48   D(15,13,14,17)        179.9986         estimate D2E/DX2                !
 ! D49   D(6,13,15,18)        -179.9997         estimate D2E/DX2                !
 ! D50   D(6,13,15,19)           0.001          estimate D2E/DX2                !
 ! D51   D(14,13,15,18)          0.0008         estimate D2E/DX2                !
 ! D52   D(14,13,15,19)       -179.9985         estimate D2E/DX2                !
 ! D53   D(13,14,16,20)          0.0001         estimate D2E/DX2                !
 ! D54   D(13,14,16,21)       -179.9999         estimate D2E/DX2                !
 ! D55   D(17,14,16,20)       -179.9992         estimate D2E/DX2                !
 ! D56   D(17,14,16,21)          0.0008         estimate D2E/DX2                !
 ! D57   D(13,15,18,20)         -0.0003         estimate D2E/DX2                !
 ! D58   D(13,15,18,22)        180.0            estimate D2E/DX2                !
 ! D59   D(19,15,18,20)        179.9989         estimate D2E/DX2                !
 ! D60   D(19,15,18,22)         -0.0007         estimate D2E/DX2                !
 ! D61   D(14,16,20,18)          0.0003         estimate D2E/DX2                !
 ! D62   D(14,16,20,23)       -179.9999         estimate D2E/DX2                !
 ! D63   D(21,16,20,18)       -179.9997         estimate D2E/DX2                !
 ! D64   D(21,16,20,23)          0.0001         estimate D2E/DX2                !
 ! D65   D(14,16,21,24)        179.9999         estimate D2E/DX2                !
 ! D66   D(14,16,21,25)         -0.0001         estimate D2E/DX2                !
 ! D67   D(20,16,21,24)         -0.0001         estimate D2E/DX2                !
 ! D68   D(20,16,21,25)        179.9999         estimate D2E/DX2                !
 ! D69   D(15,18,20,16)         -0.0002         estimate D2E/DX2                !
 ! D70   D(15,18,20,23)       -180.0            estimate D2E/DX2                !
 ! D71   D(22,18,20,16)        179.9995         estimate D2E/DX2                !
 ! D72   D(22,18,20,23)         -0.0003         estimate D2E/DX2                !
 ! D73   D(16,20,23,26)       -180.0            estimate D2E/DX2                !
 ! D74   D(16,20,23,27)          0.0            estimate D2E/DX2                !
 ! D75   D(18,20,23,26)         -0.0002         estimate D2E/DX2                !
 ! D76   D(18,20,23,27)        179.9997         estimate D2E/DX2                !
 ! D77   D(16,21,24,27)         -0.0001         estimate D2E/DX2                !
 ! D78   D(16,21,24,28)       -180.0            estimate D2E/DX2                !
 ! D79   D(25,21,24,27)        180.0            estimate D2E/DX2                !
 ! D80   D(25,21,24,28)          0.0001         estimate D2E/DX2                !
 ! D81   D(20,23,27,24)         -0.0001         estimate D2E/DX2                !
 ! D82   D(20,23,27,29)       -180.0            estimate D2E/DX2                !
 ! D83   D(26,23,27,24)        179.9999         estimate D2E/DX2                !
 ! D84   D(26,23,27,29)          0.0            estimate D2E/DX2                !
 ! D85   D(21,24,27,23)          0.0001         estimate D2E/DX2                !
 ! D86   D(21,24,27,29)       -180.0            estimate D2E/DX2                !
 ! D87   D(28,24,27,23)       -179.9999         estimate D2E/DX2                !
 ! D88   D(28,24,27,29)          0.0            estimate D2E/DX2                !
 ! D89   D(3,30,31,33)         179.9998         estimate D2E/DX2                !
 ! D90   D(3,30,31,34)          -0.0011         estimate D2E/DX2                !
 ! D91   D(32,30,31,33)         -0.0005         estimate D2E/DX2                !
 ! D92   D(32,30,31,34)        179.9985         estimate D2E/DX2                !
 ! D93   D(3,30,32,35)        -179.9998         estimate D2E/DX2                !
 ! D94   D(3,30,32,36)           0.0009         estimate D2E/DX2                !
 ! D95   D(31,30,32,35)          0.0006         estimate D2E/DX2                !
 ! D96   D(31,30,32,36)       -179.9988         estimate D2E/DX2                !
 ! D97   D(30,31,33,37)          0.0001         estimate D2E/DX2                !
 ! D98   D(30,31,33,38)       -180.0            estimate D2E/DX2                !
 ! D99   D(34,31,33,37)       -179.9989         estimate D2E/DX2                !
 ! D100  D(34,31,33,38)          0.001          estimate D2E/DX2                !
 ! D101  D(30,32,35,37)         -0.0002         estimate D2E/DX2                !
 ! D102  D(30,32,35,39)       -179.9998         estimate D2E/DX2                !
 ! D103  D(36,32,35,37)        179.9992         estimate D2E/DX2                !
 ! D104  D(36,32,35,39)         -0.0005         estimate D2E/DX2                !
 ! D105  D(31,33,37,35)          0.0002         estimate D2E/DX2                !
 ! D106  D(31,33,37,40)       -179.9999         estimate D2E/DX2                !
 ! D107  D(38,33,37,35)       -179.9997         estimate D2E/DX2                !
 ! D108  D(38,33,37,40)          0.0002         estimate D2E/DX2                !
 ! D109  D(31,33,38,41)        179.9999         estimate D2E/DX2                !
 ! D110  D(31,33,38,42)         -0.0002         estimate D2E/DX2                !
 ! D111  D(37,33,38,41)         -0.0002         estimate D2E/DX2                !
 ! D112  D(37,33,38,42)        179.9998         estimate D2E/DX2                !
 ! D113  D(32,35,37,33)         -0.0002         estimate D2E/DX2                !
 ! D114  D(32,35,37,40)        180.0            estimate D2E/DX2                !
 ! D115  D(39,35,37,33)        179.9995         estimate D2E/DX2                !
 ! D116  D(39,35,37,40)         -0.0004         estimate D2E/DX2                !
 ! D117  D(33,37,40,43)       -179.9999         estimate D2E/DX2                !
 ! D118  D(33,37,40,44)         -0.0001         estimate D2E/DX2                !
 ! D119  D(35,37,40,43)         -0.0001         estimate D2E/DX2                !
 ! D120  D(35,37,40,44)        179.9997         estimate D2E/DX2                !
 ! D121  D(33,38,41,44)          0.0001         estimate D2E/DX2                !
 ! D122  D(33,38,41,45)        180.0            estimate D2E/DX2                !
 ! D123  D(42,38,41,44)       -179.9998         estimate D2E/DX2                !
 ! D124  D(42,38,41,45)          0.0001         estimate D2E/DX2                !
 ! D125  D(37,40,44,41)          0.0            estimate D2E/DX2                !
 ! D126  D(37,40,44,46)       -180.0            estimate D2E/DX2                !
 ! D127  D(43,40,44,41)        179.9998         estimate D2E/DX2                !
 ! D128  D(43,40,44,46)         -0.0001         estimate D2E/DX2                !
 ! D129  D(38,41,44,40)          0.0            estimate D2E/DX2                !
 ! D130  D(38,41,44,46)       -180.0            estimate D2E/DX2                !
 ! D131  D(45,41,44,40)       -179.9999         estimate D2E/DX2                !
 ! D132  D(45,41,44,46)          0.0001         estimate D2E/DX2                !
 --------------------------------------------------------------------------------
 Trust Radius=3.00D-01 FncErr=1.00D-07 GrdErr=1.00D-06
 Number of steps in this run=    276 maximum allowed number of steps=    276.
 GradGradGradGradGradGradGradGradGradGradGradGradGradGradGradGradGradGrad

                          Input orientation:                          
 ---------------------------------------------------------------------
 Center     Atomic      Atomic             Coordinates (Angstroms)
 Number     Number       Type             X           Y           Z
 ---------------------------------------------------------------------
      1          7           0        1.129745    2.228916    0.000105
      2          6           0       -0.287290    2.185855    0.000106
      3          6           0        1.723230    0.971151   -0.000006
      4          6           0        0.681815    0.052851   -0.000050
      5          6           0       -0.570660    0.753481    0.000026
      6          6           0       -1.608894   -0.168609   -0.000013
      7          6           0        0.404941   -1.376508   -0.000144
      8          7           0       -1.010110   -1.424962   -0.000132
      9          8           0       -0.990571    3.191820    0.000212
     10          8           0        1.117529   -2.378378   -0.000250
     11          1           0       -1.492681   -2.310341   -0.000117
     12          1           0        1.614188    3.113349    0.000109
     13          6           0       -3.052873    0.011320    0.000021
     14          6           0       -3.925356   -1.073112    0.000005
     15          6           0       -3.596243    1.335614    0.000062
     16          6           0       -5.330437   -0.896730    0.000042
     17          1           0       -3.553543   -2.094005   -0.000049
     18          6           0       -4.955357    1.529487    0.000101
     19          1           0       -2.921976    2.186476    0.000050
     20          6           0       -5.864301    0.434052    0.000095
     21          6           0       -6.229950   -2.000471    0.000028
     22          1           0       -5.353749    2.540622    0.000132
     23          6           0       -7.273187    0.608794    0.000134
     24          6           0       -7.592644   -1.797476    0.000066
     25          1           0       -5.824448   -3.009116   -0.000014
     26          1           0       -7.675701    1.618289    0.000174
     27          6           0       -8.119392   -0.480696    0.000121
     28          1           0       -8.269464   -2.646708    0.000055
     29          1           0       -9.195383   -0.333531    0.000151
     30          6           0        3.165939    0.785458   -0.000037
     31          6           0        3.697789   -0.502242    0.000025
     32          6           0        4.061208    1.901211   -0.000123
     33          6           0        5.097093   -0.717691   -0.000007
     34          1           0        3.032627   -1.362105    0.000115
     35          6           0        5.421585    1.714673   -0.000156
     36          1           0        3.677903    2.916653   -0.000153
     37          6           0        5.985468    0.407846   -0.000102
     38          6           0        5.647560   -2.031229    0.000055
     39          1           0        6.086838    2.573967   -0.000219
     40          6           0        7.386422    0.179814   -0.000135
     41          6           0        7.012354   -2.219940    0.000021
     42          1           0        4.969881   -2.880345    0.000131
     43          1           0        8.059050    1.033649   -0.000206
     44          6           0        7.889098   -1.105114   -0.000075
     45          1           0        7.422834   -3.225280    0.000069
     46          1           0        8.962990   -1.267513   -0.000101
 ---------------------------------------------------------------------
                    Distance matrix (angstroms):
                    1          2          3          4          5
     1  N    0.000000
     2  C    1.417689   0.000000
     3  C    1.390754   2.348978   0.000000
     4  C    2.221689   2.342834   1.388460   0.000000
     5  C    2.251285   1.460135   2.304194   1.435122   0.000000
     6  C    3.639817   2.700026   3.521662   2.301389   1.388589
     7  C    3.677557   3.628996   2.692469   1.455928   2.342787
     8  N    4.234360   3.682454   3.634901   2.246451   2.222325
     9  O    2.328717   1.227424   3.506578   3.556684   2.474232
    10  O    4.607310   4.775536   3.403853   2.469964   3.557882
    11  H    5.242325   4.654970   4.594592   3.211403   3.199551
    12  H    1.008418   2.115624   2.144971   3.199370   3.215982
    13  C    4.734134   3.518103   4.871595   3.734919   2.590788
    14  C    6.037999   4.884300   6.007124   4.742765   3.819742
    15  C    4.809673   3.416443   5.331944   4.466236   3.081076
    16  C    7.176602   5.910640   7.296794   6.086779   5.037725
    17  H    6.373447   5.383829   6.102419   4.748394   4.123805
    18  C    6.125167   4.713986   6.701885   5.827363   4.452837
    19  H    4.051943   2.634686   4.801557   4.188038   2.753573
    20  C    7.220680   5.845671   7.606517   6.557206   5.303270
    21  C    8.488394   7.269149   8.490207   7.210314   6.293792
    22  H    6.490983   5.078865   7.248922   6.528173   5.106057
    23  C    8.557690   7.161695   9.003712   7.974405   6.704088
    24  C    9.606867   8.320765   9.718580   8.478820   7.470987
    25  H    8.706192   7.592618   8.532876   7.190765   6.462153
    26  H    8.826593   7.410179   9.421183   8.502862   7.157479
    27  C    9.637870   8.273591   9.949124   8.817365   7.648957
    28  H   10.588524   9.331065  10.627457   9.349493   8.416226
    29  H   10.638346   9.257507  10.996286   9.884752   8.692954
    30  C    2.495928   3.726379   1.454610   2.589901   3.736736
    31  C    3.748876   4.806945   2.463690   3.066631   4.449325
    32  C    2.949723   4.357804   2.516178   3.851848   4.771948
    33  C    4.941897   6.117365   3.772948   4.482010   5.855576
    34  H    4.064036   4.858999   2.675557   2.743796   4.178442
    35  C    4.322538   5.728287   3.772354   5.022656   6.068846
    36  H    2.639335   4.031975   2.757848   4.144624   4.767557
    37  C    5.185975   6.519878   4.299301   5.315520   6.565233
    38  C    6.209629   7.280539   4.941118   5.385352   6.813286
    39  H    4.969088   6.385933   4.648666   5.964084   6.901916
    40  C    6.583679   7.931586   5.718213   6.705809   7.977735
    41  C    7.375460   8.526185   6.177208   6.726166   8.145142
    42  H    6.391494   7.300975   5.037337   5.195301   6.625880
    43  H    7.031638   8.425495   6.336128   7.442148   8.634257
    44  C    7.536883   8.813841   6.506059   7.299713   8.661517
    45  H    8.327738   9.419469   7.077819   7.495831   8.928969
    46  H    8.578155   9.873876   7.577977   8.385775   9.745507
                    6          7          8          9         10
     6  C    0.000000
     7  C    2.348308   0.000000
     8  N    1.391749   1.415880   0.000000
     9  O    3.416842   4.776722   4.616823   0.000000
    10  O    3.509482   1.229441   2.331491   5.955770   0.000000
    11  H    2.144883   2.114950   1.008351   5.525024   2.611097
    12  H    4.599946   4.649849   5.242443   2.605941   5.514140
    13  C    1.455146   3.725929   2.497156   3.790603   4.806549
    14  C    2.486789   4.340912   2.936402   5.177124   5.209070
    15  C    2.492437   4.833744   3.782706   3.199223   6.001115
    16  C    3.792103   5.755410   4.352500   5.962439   6.616007
    17  H    2.736569   4.022984   2.629956   5.874417   4.679720
    18  C    3.752645   6.097344   4.928868   4.299172   7.221589
    19  H    2.696407   4.874755   4.086284   2.177393   6.095531
    20  C    4.297870   6.525452   5.197990   5.599869   7.526999
    21  C    4.970903   6.664166   5.251470   7.376380   7.357191
    22  H    4.622107   6.964655   5.881586   4.411506   8.128592
    23  C    5.717392   7.930641   6.585005   6.792885   8.906588
    24  C    6.201489   8.008657   6.593066   8.275291   8.729522
    25  H    5.083245   6.439775   5.068273   7.862441   6.970572
    26  H    6.324488   8.617748   7.327447   6.867821   9.658894
    27  C    6.517974   8.571274   7.171717   8.019193   9.429841
    28  H    7.106628   8.766910   7.361446   9.331168   9.390827
    29  H    7.588281   9.656812   8.257719   8.930120  10.513684
    30  C    4.869217   3.506737   4.724970   4.802828   3.769064
    31  C    5.317160   3.406932   4.797471   5.968820   3.190239
    32  C    6.036076   4.910370   6.064791   5.214033   5.194240
    33  C    6.728429   4.738178   6.148021   7.234910   4.312170
    34  H    4.792510   2.627725   4.043226   6.076541   2.168043
    35  C    7.278351   5.892548   7.157095   6.580099   5.939526
    36  H    6.121198   5.398473   6.389608   4.676576   5.881570
    37  C    7.616209   5.858857   7.231687   7.511034   5.608910
    38  C    7.491694   5.283343   6.685217   8.446598   4.543313
    39  H    8.169823   6.920275   8.146048   7.104327   7.015679
    40  C    9.002061   7.152847   8.548512   8.902033   6.770773
    41  C    8.861934   6.661027   8.061757   9.660950   5.896954
    42  H    7.115743   4.806267   6.154546   8.508712   3.884918
    43  H    9.742411   8.024602   9.396512   9.303405   7.734768
    44  C    9.544050   7.489076   8.904954   9.864693   6.890236
    45  H    9.534954   7.257326   8.622975  10.581331   6.361927
    46  H   10.628844   8.558743   9.974343  10.906834   7.923716
                   11         12         13         14         15
    11  H    0.000000
    12  H    6.250524   0.000000
    13  C    2.797197   5.603931   0.000000
    14  C    2.729220   6.943558   1.391840   0.000000
    15  C    4.209271   5.505355   1.431435   2.431106   0.000000
    16  C    4.089825   8.019261   2.451908   1.416108   2.826798
    17  H    2.072186   7.336346   2.164039   1.086493   3.429885
    18  C    5.170532   6.757776   2.433984   2.799004   1.372872
    19  H    4.718501   4.629890   2.179091   3.410526   1.085634
    20  C    5.161662   7.943956   2.843032   2.455820   2.440676
    21  C    4.747393   9.363848   3.760468   2.484180   4.250397
    22  H    6.199975   6.991435   3.419269   3.885792   2.130932
    23  C    6.475770   9.233538   4.262397   3.746569   3.748091
    24  C    6.121485  10.434652   4.886846   3.738142   5.078137
    25  H    4.387766   9.634204   4.099349   2.711948   4.882784
    26  H    7.325563   9.409423   4.894169   4.616138   4.089240
    27  C    6.874656  10.375921   5.090353   4.235669   4.874203
    28  H    6.785126  11.439617   5.854736   4.620333   6.139860
    29  H    7.952320  11.345828   6.152183   5.321669   5.842638
    30  C    5.593453   2.797679   6.266810   7.330808   6.784525
    31  C    5.496381   4.172995   6.770169   7.644490   7.522009
    32  C    6.970140   2.730785   7.360831   8.522429   7.678311
    33  C    6.779503   5.177595   8.182506   9.029447   8.932533
    34  H    4.623588   4.694854   6.238558   6.963982   7.156787
    35  C    8.000488   4.056176   8.643949   9.753822   9.025791
    36  H    7.352306   2.073068   7.331051   8.586488   7.443983
    37  C    7.956837   5.140801   9.047035  10.020862   9.626523
    38  C    7.145694   6.537184   8.936976   9.620744   9.837862
    39  H    9.016960   4.505056   9.492180  10.655760   9.761945
    40  C    9.221678   6.474899  10.440655  11.380955  11.043315
    41  C    8.505515   7.588423  10.309574  10.997669  11.188579
    42  H    6.487651   6.869137   8.527972   9.076967   9.547397
    43  H   10.120170   6.772104  11.158853  12.168173  11.659204
    44  C    9.458877   7.561080  10.998780  11.814497  11.741815
    45  H    8.962339   8.597592  10.964306  11.550465  11.925679
    46  H   10.507547   8.555515  12.083724  12.889812  12.826169
                   16         17         18         19         20
    16  C    0.000000
    17  H    2.142620   0.000000
    18  C    2.455038   3.885200   0.000000
    19  H    3.912396   4.326823   2.136884   0.000000
    20  C    1.433873   3.425007   1.423431   3.424656   0.000000
    21  C    1.423857   2.678041   3.753024   5.336030   2.461829
    22  H    3.437431   4.971972   1.086789   2.457425   2.167556
    23  C    2.457820   4.597921   2.493995   4.628403   1.419681
    24  C    2.434938   4.049971   4.245464   6.138975   2.822567
    25  H    2.169383   2.448354   4.621064   5.951346   3.443399
    26  H    3.438835   5.547370   2.721793   4.787561   2.164160
    27  C    2.819815   4.842493   3.748593   5.841827   2.433557
    28  H    3.420571   4.748199   5.331408   7.208002   3.908438
    29  H    3.905765   5.910129   4.631269   6.760627   3.418375
    30  C    8.661303   7.310455   8.155307   6.247044   9.037075
    31  C    9.036840   7.423983   8.888468   7.144963   9.607820
    32  C    9.799565   8.599197   9.024224   6.989008  10.033359
    33  C   10.429067   8.759437  10.300561   8.528755  11.021736
    34  H    8.376002   6.626712   8.495245   6.931791   9.076426
    35  C   11.064601   9.749818  10.378594   8.356890  11.358310
    36  H    9.782233   8.797756   8.743993   6.640148   9.859866
    37  C   11.390857   9.861642  10.998169   9.083286  11.849798
    38  C   11.036463   9.201317  11.184836   9.551229  11.772874
    39  H   11.933143  10.711065  11.091484   9.017144  12.141209
    40  C   12.762345  11.173768  12.415358  10.501893  13.253162
    41  C   12.413516  10.566647  12.541304  10.867724  13.147316
    42  H   10.489580   8.559620  10.860800   9.378384  11.329816
    43  H   13.527924  12.026410  13.023849  11.041374  13.936256
    44  C   13.221177  11.485292  13.111870  11.301057  13.839256
    45  H   12.964107  11.034520  13.259993  11.674853  13.781824
    46  H   14.298235  12.543791  14.196605  12.376690  14.924607
                   21         22         23         24         25
    21  C    0.000000
    22  H    4.624852   0.000000
    23  C    2.810090   2.723270   0.000000
    24  C    1.377731   4.881777   2.427383   0.000000
    25  H    1.087105   5.569663   3.897194   2.143499   0.000000
    26  H    3.896873   2.498431   1.086783   3.416775   4.983976
    27  C    2.424811   4.095991   1.379511   1.418229   3.414627
    28  H    2.139448   5.950612   3.404535   1.085947   2.471729
    29  H    3.401835   4.797802   2.140751   2.170693   4.303714
    30  C    9.800211   8.698602  10.440621  11.064296   9.758373
    31  C   10.040154   9.549312  11.027090  11.364485   9.846696
    32  C   11.005955   9.436645  11.407842  12.226715  11.038003
    33  C   11.399449  10.946995  12.441197  12.735594  11.159332
    34  H    9.284549   9.250004  10.492580  10.634187   9.008908
    35  C   12.229496  10.806943  12.742849  13.479813  12.197846
    36  H   11.060907   9.039477  11.191630  12.216720  11.198634
    37  C   12.450559  11.538049  13.260178  13.756038  12.294297
    38  C   11.877550  11.913464  13.187700  13.242267  11.513611
    39  H   13.138826  11.440636  13.503784  14.360980  13.154830
    40  C   13.789823  12.957059  14.665884  15.109007  13.590304
    41  C   13.244123  13.250791  14.562912  14.611107  12.861037
    42  H   11.234340  11.660370  12.730546  12.609109  10.795097
    43  H   14.607580  13.497190  15.338122  15.905684  14.460134
    44  C   14.147409  13.735516  15.258846  15.497216  13.845092
    45  H   13.707614  14.017371  15.187928  15.083209  13.249046
    46  H   15.210610  14.814551  16.344234  16.564114  14.889644
                   26         27         28         29         30
    26  H    0.000000
    27  C    2.145367   0.000000
    28  H    4.306130   2.171205   0.000000
    29  H    2.473668   1.086008   2.491609   0.000000
    30  C   10.873581  11.356137  11.939355  12.411866   0.000000
    31  C   11.569483  11.817201  12.157873  12.894276   1.393211
    32  C   11.740318  12.411305  13.142642  13.443633   1.430528
    33  C   12.984647  13.218610  13.505034  14.297638   2.447205
    34  H   11.115351  11.186796  11.374861  12.271194   2.151697
    35  C   13.097641  13.717788  14.368941  14.759773   2.439545
    36  H   11.427601  12.276732  13.179172  13.277243   2.191826
    37  C   13.714690  14.132819  14.578525  15.198943   2.844703
    38  C   13.814060  13.853993  13.930627  14.939717   3.753954
    39  H   13.795680  14.530930  15.276088  15.556344   3.424969
    40  C   15.130656  15.519876  15.908991  16.589749   4.263717
    41  C   15.181270  15.231372  15.287776  16.317147   4.881324
    42  H   13.421939  13.307418  13.241406  14.392393   4.085623
    43  H   15.745609  16.249161  16.738142  17.308513   4.899401
    44  C   15.801262  16.020663  16.231933  17.101896   5.087484
    45  H   15.856416  15.782697  15.702960  16.867938   5.848690
    46  H   16.887092  17.100493  17.287558  18.182377   6.149837
                   31         32         33         34         35
    31  C    0.000000
    32  C    2.430773   0.000000
    33  C    1.415793   2.816328   0.000000
    34  H    1.087108   3.421580   2.162704   0.000000
    35  C    2.808235   1.373107   2.453913   3.895341   0.000000
    36  H    3.418953   1.085378   3.901609   4.327141   2.117825
    37  C    2.462059   2.435758   1.433891   3.442673   1.423292
    38  C    2.477783   4.240353   1.424218   2.699185   3.752712
    39  H    3.894948   2.134427   3.437238   4.982055   1.086714
    40  C    3.751162   3.744363   2.458972   4.618771   2.493266
    41  C    3.733206   5.068841   2.434128   4.071131   4.244022
    42  H    2.696960   4.867131   2.166392   2.461302   4.617167
    43  H    4.623803   4.090893   3.440985   5.568174   2.723971
    44  C    4.234445   4.867313   2.818757   4.863266   3.746975
    45  H    4.614206   6.130370   3.420099   4.769207   5.329928
    46  H    5.320525   5.836804   3.904800   5.931117   4.629793
                   36         37         38         39         40
    36  H    0.000000
    37  C    3.408661   0.000000
    38  C    5.325513   2.462371   0.000000
    39  H    2.433188   2.168492   4.626099   0.000000
    40  C    4.609056   1.419391   2.812890   2.724131   0.000000
    41  C    6.123982   2.821304   1.377779   4.882430   2.428733
    42  H    5.939225   3.441456   1.086392   5.567505   3.899262
    43  H    4.768664   2.165957   3.899841   2.502439   1.086951
    44  C    5.823124   2.431636   2.425321   4.096801   1.379755
    45  H    7.193598   3.907125   2.139476   5.951147   3.405289
    46  H    6.740875   3.416499   3.402255   4.798877   2.140169
                   41         42         43         44         45
    41  C    0.000000
    42  H    2.146586   0.000000
    43  H    3.417808   4.986212   0.000000
    44  C    1.418280   3.416617   2.145505   0.000000
    45  H    1.085911   2.477087   4.306187   2.170831   0.000000
    46  H    2.170737   4.306524   2.472338   1.086102   2.490970
                   46
    46  H    0.000000
 Stoichiometry    C26H16N2O2(1+,2)
 Framework group  C1[X(C26H16N2O2)]
 Deg. of freedom   132
 Full point group                 C1      NOp   1
 Largest Abelian subgroup         C1      NOp   1
 Largest concise Abelian subgroup C1      NOp   1
                         Standard orientation:                         
 ---------------------------------------------------------------------
 Center     Atomic      Atomic             Coordinates (Angstroms)
 Number     Number       Type             X           Y           Z
 ---------------------------------------------------------------------
      1          7           0        1.129745    2.228916    0.000105
      2          6           0       -0.287290    2.185855    0.000106
      3          6           0        1.723230    0.971151   -0.000006
      4          6           0        0.681815    0.052851   -0.000050
      5          6           0       -0.570660    0.753481    0.000026
      6          6           0       -1.608894   -0.168609   -0.000013
      7          6           0        0.404941   -1.376508   -0.000144
      8          7           0       -1.010110   -1.424962   -0.000132
      9          8           0       -0.990571    3.191820    0.000212
     10          8           0        1.117529   -2.378378   -0.000250
     11          1           0       -1.492681   -2.310341   -0.000117
     12          1           0        1.614188    3.113349    0.000109
     13          6           0       -3.052873    0.011320    0.000021
     14          6           0       -3.925356   -1.073112    0.000005
     15          6           0       -3.596243    1.335614    0.000062
     16          6           0       -5.330437   -0.896730    0.000042
     17          1           0       -3.553543   -2.094005   -0.000049
     18          6           0       -4.955357    1.529487    0.000101
     19          1           0       -2.921976    2.186476    0.000050
     20          6           0       -5.864301    0.434052    0.000095
     21          6           0       -6.229950   -2.000471    0.000028
     22          1           0       -5.353749    2.540622    0.000132
     23          6           0       -7.273187    0.608794    0.000134
     24          6           0       -7.592644   -1.797476    0.000066
     25          1           0       -5.824448   -3.009116   -0.000014
     26          1           0       -7.675701    1.618289    0.000174
     27          6           0       -8.119392   -0.480696    0.000121
     28          1           0       -8.269464   -2.646708    0.000055
     29          1           0       -9.195383   -0.333531    0.000151
     30          6           0        3.165939    0.785458   -0.000037
     31          6           0        3.697789   -0.502242    0.000025
     32          6           0        4.061208    1.901211   -0.000123
     33          6           0        5.097093   -0.717691   -0.000007
     34          1           0        3.032627   -1.362105    0.000115
     35          6           0        5.421585    1.714673   -0.000156
     36          1           0        3.677903    2.916653   -0.000153
     37          6           0        5.985468    0.407846   -0.000102
     38          6           0        5.647560   -2.031229    0.000055
     39          1           0        6.086838    2.573967   -0.000219
     40          6           0        7.386422    0.179814   -0.000135
     41          6           0        7.012354   -2.219940    0.000021
     42          1           0        4.969881   -2.880345    0.000131
     43          1           0        8.059050    1.033649   -0.000206
     44          6           0        7.889098   -1.105114   -0.000075
     45          1           0        7.422834   -3.225280    0.000069
     46          1           0        8.962990   -1.267513   -0.000101
 ---------------------------------------------------------------------
 Rotational constants (GHZ):      0.5442106      0.0576155      0.0520997
 Standard basis: 6-31+G(d,p) (6D, 7F)
 There are   650 symmetry adapted basis functions of A   symmetry.
 Integral buffers will be    262144 words long.
 Raffenetti 2 integral format.
 Two-electron integral symmetry is turned on.
   650 basis functions,  1072 primitive gaussians,   650 cartesian basis functions
   101 alpha electrons      100 beta electrons
       nuclear repulsion energy      2466.6145673971 Hartrees.
 NAtoms=   46 NActive=   46 NUniq=   46 SFac= 1.00D+00 NAtFMM=   50 NAOKFM=F Big=F
 One-electron integrals computed using PRISM.
 NBasis=   650 RedAO= T  NBF=   650
 NBsUse=   637 1.00D-06 NBFU=   637
 Harris functional with IExCor=  402 diagonalized for initial guess.
 ExpMin= 4.38D-02 ExpMax= 5.48D+03 ExpMxC= 8.25D+02 IAcc=2 IRadAn=         0 AccDes= 0.00D+00
 HarFok:  IExCor=  402 AccDes= 0.00D+00 IRadAn=         0 IDoV= 1
 ScaDFX=  1.000000  1.000000  1.000000  1.000000
 FoFCou: FMM=F IPFlag=           0 FMFlag=      100000 FMFlg1=           0
         NFxFlg=           0 DoJE=T BraDBF=F KetDBF=T FulRan=T
         Omega=  0.000000  0.000000  1.000000  0.000000  0.000000 ICntrl=     500 IOpCl=  0
         NMat0=    1 NMatS0=    1 NMatT0=    0 NMatD0=    1 NMtDS0=    0 NMtDT0=    0
         I1Cent=           4 NGrid=           0.
 Petite list used in FoFCou.
 Initial guess orbital symmetries:
 Alpha Orbitals:
       Occupied  (A) (A) (A) (A) (A) (A) (A) (A) (A) (A) (A) (A)
                 (A) (A) (A) (A) (A) (A) (A) (A) (A) (A) (A) (A)
                 (A) (A) (A) (A) (A) (A) (A) (A) (A) (A) (A) (A)
                 (A) (A) (A) (A) (A) (A) (A) (A) (A) (A) (A) (A)
                 (A) (A) (A) (A) (A) (A) (A) (A) (A) (A) (A) (A)
                 (A) (A) (A) (A) (A) (A) (A) (A) (A) (A) (A) (A)
                 (A) (A) (A) (A) (A) (A) (A) (A) (A) (A) (A) (A)
                 (A) (A) (A) (A) (A) (A) (A) (A) (A) (A) (A) (A)
                 (A) (A) (A) (A) (A)
       Virtual   (A) (A) (A) (A) (A) (A) (A) (A) (A) (A) (A) (A)
                 (A) (A) (A) (A) (A) (A) (A) (A) (A) (A) (A) (A)
                 (A) (A) (A) (A) (A) (A) (A) (A) (A) (A) (A) (A)
                 (A) (A) (A) (A) (A) (A) (A) (A) (A) (A) (A) (A)
                 (A) (A) (A) (A) (A) (A) (A) (A) (A) (A) (A) (A)
                 (A) (A) (A) (A) (A) (A) (A) (A) (A) (A) (A) (A)
                 (A) (A) (A) (A) (A) (A) (A) (A) (A) (A) (A) (A)
                 (A) (A) (A) (A) (A) (A) (A) (A) (A) (A) (A) (A)
                 (A) (A) (A) (A) (A) (A) (A) (A) (A) (A) (A) (A)
                 (A) (A) (A) (A) (A) (A) (A) (A) (A) (A) (A) (A)
                 (A) (A) (A) (A) (A) (A) (A) (A) (A) (A) (A) (A)
                 (A) (A) (A) (A) (A) (A) (A) (A) (A) (A) (A) (A)
                 (A) (A) (A) (A) (A) (A) (A) (A) (A) (A) (A) (A)
                 (A) (A) (A) (A) (A) (A) (A) (A) (A) (A) (A) (A)
                 (A) (A) (A) (A) (A) (A) (A) (A) (A) (A) (A) (A)
                 (A) (A) (A) (A) (A) (A) (A) (A) (A) (A) (A) (A)
                 (A) (A) (A) (A) (A) (A) (A) (A) (A) (A) (A) (A)
                 (A) (A) (A) (A) (A) (A) (A) (A) (A) (A) (A) (A)
                 (A) (A) (A) (A) (A) (A) (A) (A) (A) (A) (A) (A)
                 (A) (A) (A) (A) (A) (A) (A) (A) (A) (A) (A) (A)
                 (A) (A) (A) (A) (A) (A) (A) (A) (A) (A) (A) (A)
                 (A) (A) (A) (A) (A) (A) (A) (A) (A) (A) (A) (A)
                 (A) (A) (A) (A) (A) (A) (A) (A) (A) (A) (A) (A)
                 (A) (A) (A) (A) (A) (A) (A) (A) (A) (A) (A) (A)
                 (A) (A) (A) (A) (A) (A) (A) (A) (A) (A) (A) (A)
                 (A) (A) (A) (A) (A) (A) (A) (A) (A) (A) (A) (A)
                 (A) (A) (A) (A) (A) (A) (A) (A) (A) (A) (A) (A)
                 (A) (A) (A) (A) (A) (A) (A) (A) (A) (A) (A) (A)
                 (A) (A) (A) (A) (A) (A) (A) (A) (A) (A) (A) (A)
                 (A) (A) (A) (A) (A) (A) (A) (A) (A) (A) (A) (A)
                 (A) (A) (A) (A) (A) (A) (A) (A) (A) (A) (A) (A)
                 (A) (A) (A) (A) (A) (A) (A) (A) (A) (A) (A) (A)
                 (A) (A) (A) (A) (A) (A) (A) (A) (A) (A) (A) (A)
                 (A) (A) (A) (A) (A) (A) (A) (A) (A) (A) (A) (A)
                 (A) (A) (A) (A) (A) (A) (A) (A) (A) (A) (A) (A)
                 (A) (A) (A) (A) (A) (A) (A) (A) (A) (A) (A) (A)
                 (A) (A) (A) (A) (A) (A) (A) (A) (A) (A) (A) (A)
                 (A) (A) (A) (A) (A) (A) (A) (A) (A) (A) (A) (A)
                 (A) (A) (A) (A) (A) (A) (A) (A) (A) (A) (A) (A)
                 (A) (A) (A) (A) (A) (A) (A) (A) (A) (A) (A) (A)
                 (A) (A) (A) (A) (A) (A) (A) (A) (A) (A) (A) (A)
                 (A) (A) (A) (A) (A) (A) (A) (A) (A) (A) (A) (A)
                 (A) (A) (A) (A) (A) (A) (A) (A) (A) (A) (A) (A)
                 (A) (A) (A) (A) (A) (A) (A) (A) (A) (A) (A) (A)
                 (A) (A) (A) (A) (A) (A) (A) (A)
 Beta  Orbitals:
       Occupied  (A) (A) (A) (A) (A) (A) (A) (A) (A) (A) (A) (A)
                 (A) (A) (A) (A) (A) (A) (A) (A) (A) (A) (A) (A)
                 (A) (A) (A) (A) (A) (A) (A) (A) (A) (A) (A) (A)
                 (A) (A) (A) (A) (A) (A) (A) (A) (A) (A) (A) (A)
                 (A) (A) (A) (A) (A) (A) (A) (A) (A) (A) (A) (A)
                 (A) (A) (A) (A) (A) (A) (A) (A) (A) (A) (A) (A)
                 (A) (A) (A) (A) (A) (A) (A) (A) (A) (A) (A) (A)
                 (A) (A) (A) (A) (A) (A) (A) (A) (A) (A) (A) (A)
                 (A) (A) (A) (A)
       Virtual   (A) (A) (A) (A) (A) (A) (A) (A) (A) (A) (A) (A)
                 (A) (A) (A) (A) (A) (A) (A) (A) (A) (A) (A) (A)
                 (A) (A) (A) (A) (A) (A) (A) (A) (A) (A) (A) (A)
                 (A) (A) (A) (A) (A) (A) (A) (A) (A) (A) (A) (A)
                 (A) (A) (A) (A) (A) (A) (A) (A) (A) (A) (A) (A)
                 (A) (A) (A) (A) (A) (A) (A) (A) (A) (A) (A) (A)
                 (A) (A) (A) (A) (A) (A) (A) (A) (A) (A) (A) (A)
                 (A) (A) (A) (A) (A) (A) (A) (A) (A) (A) (A) (A)
                 (A) (A) (A) (A) (A) (A) (A) (A) (A) (A) (A) (A)
                 (A) (A) (A) (A) (A) (A) (A) (A) (A) (A) (A) (A)
                 (A) (A) (A) (A) (A) (A) (A) (A) (A) (A) (A) (A)
                 (A) (A) (A) (A) (A) (A) (A) (A) (A) (A) (A) (A)
                 (A) (A) (A) (A) (A) (A) (A) (A) (A) (A) (A) (A)
                 (A) (A) (A) (A) (A) (A) (A) (A) (A) (A) (A) (A)
                 (A) (A) (A) (A) (A) (A) (A) (A) (A) (A) (A) (A)
                 (A) (A) (A) (A) (A) (A) (A) (A) (A) (A) (A) (A)
                 (A) (A) (A) (A) (A) (A) (A) (A) (A) (A) (A) (A)
                 (A) (A) (A) (A) (A) (A) (A) (A) (A) (A) (A) (A)
                 (A) (A) (A) (A) (A) (A) (A) (A) (A) (A) (A) (A)
                 (A) (A) (A) (A) (A) (A) (A) (A) (A) (A) (A) (A)
                 (A) (A) (A) (A) (A) (A) (A) (A) (A) (A) (A) (A)
                 (A) (A) (A) (A) (A) (A) (A) (A) (A) (A) (A) (A)
                 (A) (A) (A) (A) (A) (A) (A) (A) (A) (A) (A) (A)
                 (A) (A) (A) (A) (A) (A) (A) (A) (A) (A) (A) (A)
                 (A) (A) (A) (A) (A) (A) (A) (A) (A) (A) (A) (A)
                 (A) (A) (A) (A) (A) (A) (A) (A) (A) (A) (A) (A)
                 (A) (A) (A) (A) (A) (A) (A) (A) (A) (A) (A) (A)
                 (A) (A) (A) (A) (A) (A) (A) (A) (A) (A) (A) (A)
                 (A) (A) (A) (A) (A) (A) (A) (A) (A) (A) (A) (A)
                 (A) (A) (A) (A) (A) (A) (A) (A) (A) (A) (A) (A)
                 (A) (A) (A) (A) (A) (A) (A) (A) (A) (A) (A) (A)
                 (A) (A) (A) (A) (A) (A) (A) (A) (A) (A) (A) (A)
                 (A) (A) (A) (A) (A) (A) (A) (A) (A) (A) (A) (A)
                 (A) (A) (A) (A) (A) (A) (A) (A) (A) (A) (A) (A)
                 (A) (A) (A) (A) (A) (A) (A) (A) (A) (A) (A) (A)
                 (A) (A) (A) (A) (A) (A) (A) (A) (A) (A) (A) (A)
                 (A) (A) (A) (A) (A) (A) (A) (A) (A) (A) (A) (A)
                 (A) (A) (A) (A) (A) (A) (A) (A) (A) (A) (A) (A)
                 (A) (A) (A) (A) (A) (A) (A) (A) (A) (A) (A) (A)
                 (A) (A) (A) (A) (A) (A) (A) (A) (A) (A) (A) (A)
                 (A) (A) (A) (A) (A) (A) (A) (A) (A) (A) (A) (A)
                 (A) (A) (A) (A) (A) (A) (A) (A) (A) (A) (A) (A)
                 (A) (A) (A) (A) (A) (A) (A) (A) (A) (A) (A) (A)
                 (A) (A) (A) (A) (A) (A) (A) (A) (A) (A) (A) (A)
                 (A) (A) (A) (A) (A) (A) (A) (A) (A)
 The electronic state of the initial guess is 2-A.
 Initial guess <Sx>= 0.0000 <Sy>= 0.0000 <Sz>= 0.5000 <S**2>= 0.7500 S= 0.5000
 Requested convergence on RMS density matrix=1.00D-08 within 128 cycles.
 Requested convergence on MAX density matrix=1.00D-06.
 Requested convergence on             energy=1.00D-06.
 No special actions if energy rises.
 Restarting incremental Fock formation.
 SCF Done:  E(UB3LYP) =  -1260.23150071     A.U. after   32 cycles
             Convg  =    0.7102D-08             -V/T =  2.0096
 <Sx>= 0.0000 <Sy>= 0.0000 <Sz>= 0.5000 <S**2>= 0.7608 S= 0.5054
 <L.S>= 0.000000000000E+00
 Annihilation of the first spin contaminant:
 S**2 before annihilation     0.7608,   after     0.7501

 **********************************************************************

            Population analysis using the SCF density.

 **********************************************************************

 Orbital symmetries:
 Alpha Orbitals:
       Occupied  (A) (A) (A) (A) (A) (A) (A) (A) (A) (A) (A) (A)
                 (A) (A) (A) (A) (A) (A) (A) (A) (A) (A) (A) (A)
                 (A) (A) (A) (A) (A) (A) (A) (A) (A) (A) (A) (A)
                 (A) (A) (A) (A) (A) (A) (A) (A) (A) (A) (A) (A)
                 (A) (A) (A) (A) (A) (A) (A) (A) (A) (A) (A) (A)
                 (A) (A) (A) (A) (A) (A) (A) (A) (A) (A) (A) (A)
                 (A) (A) (A) (A) (A) (A) (A) (A) (A) (A) (A) (A)
                 (A) (A) (A) (A) (A) (A) (A) (A) (A) (A) (A) (A)
                 (A) (A) (A) (A) (A)
       Virtual   (A) (A) (A) (A) (A) (A) (A) (A) (A) (A) (A) (A)
                 (A) (A) (A) (A) (A) (A) (A) (A) (A) (A) (A) (A)
                 (A) (A) (A) (A) (A) (A) (A) (A) (A) (A) (A) (A)
                 (A) (A) (A) (A) (A) (A) (A) (A) (A) (A) (A) (A)
                 (A) (A) (A) (A) (A) (A) (A) (A) (A) (A) (A) (A)
                 (A) (A) (A) (A) (A) (A) (A) (A) (A) (A) (A) (A)
                 (A) (A) (A) (A) (A) (A) (A) (A) (A) (A) (A) (A)
                 (A) (A) (A) (A) (A) (A) (A) (A) (A) (A) (A) (A)
                 (A) (A) (A) (A) (A) (A) (A) (A) (A) (A) (A) (A)
                 (A) (A) (A) (A) (A) (A) (A) (A) (A) (A) (A) (A)
                 (A) (A) (A) (A) (A) (A) (A) (A) (A) (A) (A) (A)
                 (A) (A) (A) (A) (A) (A) (A) (A) (A) (A) (A) (A)
                 (A) (A) (A) (A) (A) (A) (A) (A) (A) (A) (A) (A)
                 (A) (A) (A) (A) (A) (A) (A) (A) (A) (A) (A) (A)
                 (A) (A) (A) (A) (A) (A) (A) (A) (A) (A) (A) (A)
                 (A) (A) (A) (A) (A) (A) (A) (A) (A) (A) (A) (A)
                 (A) (A) (A) (A) (A) (A) (A) (A) (A) (A) (A) (A)
                 (A) (A) (A) (A) (A) (A) (A) (A) (A) (A) (A) (A)
                 (A) (A) (A) (A) (A) (A) (A) (A) (A) (A) (A) (A)
                 (A) (A) (A) (A) (A) (A) (A) (A) (A) (A) (A) (A)
                 (A) (A) (A) (A) (A) (A) (A) (A) (A) (A) (A) (A)
                 (A) (A) (A) (A) (A) (A) (A) (A) (A) (A) (A) (A)
                 (A) (A) (A) (A) (A) (A) (A) (A) (A) (A) (A) (A)
                 (A) (A) (A) (A) (A) (A) (A) (A) (A) (A) (A) (A)
                 (A) (A) (A) (A) (A) (A) (A) (A) (A) (A) (A) (A)
                 (A) (A) (A) (A) (A) (A) (A) (A) (A) (A) (A) (A)
                 (A) (A) (A) (A) (A) (A) (A) (A) (A) (A) (A) (A)
                 (A) (A) (A) (A) (A) (A) (A) (A) (A) (A) (A) (A)
                 (A) (A) (A) (A) (A) (A) (A) (A) (A) (A) (A) (A)
                 (A) (A) (A) (A) (A) (A) (A) (A) (A) (A) (A) (A)
                 (A) (A) (A) (A) (A) (A) (A) (A) (A) (A) (A) (A)
                 (A) (A) (A) (A) (A) (A) (A) (A) (A) (A) (A) (A)
                 (A) (A) (A) (A) (A) (A) (A) (A) (A) (A) (A) (A)
                 (A) (A) (A) (A) (A) (A) (A) (A) (A) (A) (A) (A)
                 (A) (A) (A) (A) (A) (A) (A) (A) (A) (A) (A) (A)
                 (A) (A) (A) (A) (A) (A) (A) (A) (A) (A) (A) (A)
                 (A) (A) (A) (A) (A) (A) (A) (A) (A) (A) (A) (A)
                 (A) (A) (A) (A) (A) (A) (A) (A) (A) (A) (A) (A)
                 (A) (A) (A) (A) (A) (A) (A) (A) (A) (A) (A) (A)
                 (A) (A) (A) (A) (A) (A) (A) (A) (A) (A) (A) (A)
                 (A) (A) (A) (A) (A) (A) (A) (A) (A) (A) (A) (A)
                 (A) (A) (A) (A) (A) (A) (A) (A) (A) (A) (A) (A)
                 (A) (A) (A) (A) (A) (A) (A) (A) (A) (A) (A) (A)
                 (A) (A) (A) (A) (A) (A) (A) (A) (A) (A) (A) (A)
                 (A) (A) (A) (A) (A) (A) (A) (A)
 Beta  Orbitals:
       Occupied  (A) (A) (A) (A) (A) (A) (A) (A) (A) (A) (A) (A)
                 (A) (A) (A) (A) (A) (A) (A) (A) (A) (A) (A) (A)
                 (A) (A) (A) (A) (A) (A) (A) (A) (A) (A) (A) (A)
                 (A) (A) (A) (A) (A) (A) (A) (A) (A) (A) (A) (A)
                 (A) (A) (A) (A) (A) (A) (A) (A) (A) (A) (A) (A)
                 (A) (A) (A) (A) (A) (A) (A) (A) (A) (A) (A) (A)
                 (A) (A) (A) (A) (A) (A) (A) (A) (A) (A) (A) (A)
                 (A) (A) (A) (A) (A) (A) (A) (A) (A) (A) (A) (A)
                 (A) (A) (A) (A)
       Virtual   (A) (A) (A) (A) (A) (A) (A) (A) (A) (A) (A) (A)
                 (A) (A) (A) (A) (A) (A) (A) (A) (A) (A) (A) (A)
                 (A) (A) (A) (A) (A) (A) (A) (A) (A) (A) (A) (A)
                 (A) (A) (A) (A) (A) (A) (A) (A) (A) (A) (A) (A)
                 (A) (A) (A) (A) (A) (A) (A) (A) (A) (A) (A) (A)
                 (A) (A) (A) (A) (A) (A) (A) (A) (A) (A) (A) (A)
                 (A) (A) (A) (A) (A) (A) (A) (A) (A) (A) (A) (A)
                 (A) (A) (A) (A) (A) (A) (A) (A) (A) (A) (A) (A)
                 (A) (A) (A) (A) (A) (A) (A) (A) (A) (A) (A) (A)
                 (A) (A) (A) (A) (A) (A) (A) (A) (A) (A) (A) (A)
                 (A) (A) (A) (A) (A) (A) (A) (A) (A) (A) (A) (A)
                 (A) (A) (A) (A) (A) (A) (A) (A) (A) (A) (A) (A)
                 (A) (A) (A) (A) (A) (A) (A) (A) (A) (A) (A) (A)
                 (A) (A) (A) (A) (A) (A) (A) (A) (A) (A) (A) (A)
                 (A) (A) (A) (A) (A) (A) (A) (A) (A) (A) (A) (A)
                 (A) (A) (A) (A) (A) (A) (A) (A) (A) (A) (A) (A)
                 (A) (A) (A) (A) (A) (A) (A) (A) (A) (A) (A) (A)
                 (A) (A) (A) (A) (A) (A) (A) (A) (A) (A) (A) (A)
                 (A) (A) (A) (A) (A) (A) (A) (A) (A) (A) (A) (A)
                 (A) (A) (A) (A) (A) (A) (A) (A) (A) (A) (A) (A)
                 (A) (A) (A) (A) (A) (A) (A) (A) (A) (A) (A) (A)
                 (A) (A) (A) (A) (A) (A) (A) (A) (A) (A) (A) (A)
                 (A) (A) (A) (A) (A) (A) (A) (A) (A) (A) (A) (A)
                 (A) (A) (A) (A) (A) (A) (A) (A) (A) (A) (A) (A)
                 (A) (A) (A) (A) (A) (A) (A) (A) (A) (A) (A) (A)
                 (A) (A) (A) (A) (A) (A) (A) (A) (A) (A) (A) (A)
                 (A) (A) (A) (A) (A) (A) (A) (A) (A) (A) (A) (A)
                 (A) (A) (A) (A) (A) (A) (A) (A) (A) (A) (A) (A)
                 (A) (A) (A) (A) (A) (A) (A) (A) (A) (A) (A) (A)
                 (A) (A) (A) (A) (A) (A) (A) (A) (A) (A) (A) (A)
                 (A) (A) (A) (A) (A) (A) (A) (A) (A) (A) (A) (A)
                 (A) (A) (A) (A) (A) (A) (A) (A) (A) (A) (A) (A)
                 (A) (A) (A) (A) (A) (A) (A) (A) (A) (A) (A) (A)
                 (A) (A) (A) (A) (A) (A) (A) (A) (A) (A) (A) (A)
                 (A) (A) (A) (A) (A) (A) (A) (A) (A) (A) (A) (A)
                 (A) (A) (A) (A) (A) (A) (A) (A) (A) (A) (A) (A)
                 (A) (A) (A) (A) (A) (A) (A) (A) (A) (A) (A) (A)
                 (A) (A) (A) (A) (A) (A) (A) (A) (A) (A) (A) (A)
                 (A) (A) (A) (A) (A) (A) (A) (A) (A) (A) (A) (A)
                 (A) (A) (A) (A) (A) (A) (A) (A) (A) (A) (A) (A)
                 (A) (A) (A) (A) (A) (A) (A) (A) (A) (A) (A) (A)
                 (A) (A) (A) (A) (A) (A) (A) (A) (A) (A) (A) (A)
                 (A) (A) (A) (A) (A) (A) (A) (A) (A) (A) (A) (A)
                 (A) (A) (A) (A) (A) (A) (A) (A) (A) (A) (A) (A)
                 (A) (A) (A) (A) (A) (A) (A) (A) (A)
 The electronic state is 2-A.
 Alpha  occ. eigenvalues --  -19.28259 -19.28105 -14.52719 -14.52623 -10.44611
 Alpha  occ. eigenvalues --  -10.44533 -10.41854 -10.41747 -10.35425 -10.35280
 Alpha  occ. eigenvalues --  -10.35276 -10.34938 -10.34231 -10.33840 -10.32995
 Alpha  occ. eigenvalues --  -10.32826 -10.32822 -10.32805 -10.32663 -10.32433
 Alpha  occ. eigenvalues --  -10.31686 -10.31636 -10.31435 -10.31432 -10.31361
 Alpha  occ. eigenvalues --  -10.31346 -10.31305 -10.30935 -10.30818 -10.30710
 Alpha  occ. eigenvalues --   -1.19373  -1.18828  -1.12261  -1.10689  -1.00654
 Alpha  occ. eigenvalues --   -1.00319  -0.96030  -0.95893  -0.95539  -0.91248
 Alpha  occ. eigenvalues --   -0.90348  -0.89590  -0.88675  -0.85852  -0.84865
 Alpha  occ. eigenvalues --   -0.84263  -0.82323  -0.81906  -0.76465  -0.75258
 Alpha  occ. eigenvalues --   -0.74369  -0.73886  -0.72401  -0.72001  -0.70803
 Alpha  occ. eigenvalues --   -0.68523  -0.67113  -0.65573  -0.64103  -0.63801
 Alpha  occ. eigenvalues --   -0.63204  -0.62283  -0.61443  -0.61182  -0.60434
 Alpha  occ. eigenvalues --   -0.59590  -0.58047  -0.57313  -0.57067  -0.56829
 Alpha  occ. eigenvalues --   -0.56761  -0.56249  -0.55127  -0.54710  -0.54243
 Alpha  occ. eigenvalues --   -0.53757  -0.53332  -0.53005  -0.52703  -0.52526
 Alpha  occ. eigenvalues --   -0.52135  -0.49906  -0.49713  -0.49176  -0.49155
 Alpha  occ. eigenvalues --   -0.46785  -0.46478  -0.45515  -0.45174  -0.45164
 Alpha  occ. eigenvalues --   -0.44600  -0.41902  -0.41675  -0.41409  -0.40962
 Alpha  occ. eigenvalues --   -0.40368  -0.38357  -0.37675  -0.35239  -0.34368
 Alpha  occ. eigenvalues --   -0.33413
 Alpha virt. eigenvalues --   -0.23934  -0.18316  -0.16263  -0.15223  -0.13190
 Alpha virt. eigenvalues --   -0.11779  -0.10636  -0.10614  -0.10078  -0.09809
 Alpha virt. eigenvalues --   -0.08421  -0.07413  -0.07158  -0.06214  -0.06186
 Alpha virt. eigenvalues --   -0.06101  -0.05678  -0.05631  -0.04886  -0.04602
 Alpha virt. eigenvalues --   -0.04551  -0.03911  -0.03748  -0.03322  -0.03209
 Alpha virt. eigenvalues --   -0.02713  -0.02560  -0.02277  -0.01902  -0.01774
 Alpha virt. eigenvalues --   -0.01538  -0.01156  -0.00755  -0.00724  -0.00359
 Alpha virt. eigenvalues --   -0.00285  -0.00011   0.00648   0.00798   0.01321
 Alpha virt. eigenvalues --    0.01401   0.01608   0.02141   0.02559   0.02691
 Alpha virt. eigenvalues --    0.03511   0.03566   0.03698   0.03835   0.03930
 Alpha virt. eigenvalues --    0.04629   0.04780   0.05276   0.05540   0.05655
 Alpha virt. eigenvalues --    0.05819   0.05987   0.06275   0.06504   0.06827
 Alpha virt. eigenvalues --    0.06993   0.07122   0.07591   0.07831   0.08080
 Alpha virt. eigenvalues --    0.08146   0.08464   0.08764   0.09198   0.09317
 Alpha virt. eigenvalues --    0.09366   0.09854   0.09887   0.10269   0.10385
 Alpha virt. eigenvalues --    0.10599   0.10790   0.11168   0.11342   0.11394
 Alpha virt. eigenvalues --    0.11760   0.11854   0.11950   0.12132   0.12445
 Alpha virt. eigenvalues --    0.12770   0.12977   0.13176   0.13324   0.13589
 Alpha virt. eigenvalues --    0.13911   0.14065   0.14167   0.14432   0.14514
 Alpha virt. eigenvalues --    0.14903   0.15049   0.15097   0.15559   0.15656
 Alpha virt. eigenvalues --    0.15900   0.16110   0.16189   0.16690   0.16707
 Alpha virt. eigenvalues --    0.16911   0.16981   0.17335   0.17789   0.17978
 Alpha virt. eigenvalues --    0.18009   0.18044   0.18611   0.19119   0.19429
 Alpha virt. eigenvalues --    0.19570   0.19936   0.20188   0.20288   0.20612
 Alpha virt. eigenvalues --    0.21058   0.21418   0.21522   0.21671   0.22184
 Alpha virt. eigenvalues --    0.22476   0.23092   0.23262   0.23502   0.23539
 Alpha virt. eigenvalues --    0.23974   0.24158   0.24434   0.25145   0.25255
 Alpha virt. eigenvalues --    0.25551   0.25871   0.25992   0.26517   0.27248
 Alpha virt. eigenvalues --    0.27368   0.28441   0.29336   0.30028   0.30557
 Alpha virt. eigenvalues --    0.31021   0.31277   0.32187   0.32994   0.33178
 Alpha virt. eigenvalues --    0.33942   0.34533   0.35570   0.35888   0.37470
 Alpha virt. eigenvalues --    0.38888   0.39584   0.39811   0.40352   0.41406
 Alpha virt. eigenvalues --    0.41746   0.42059   0.42996   0.44442   0.46216
 Alpha virt. eigenvalues --    0.46642   0.48769   0.49320   0.50517   0.52672
 Alpha virt. eigenvalues --    0.53228   0.53674   0.54595   0.55170   0.55998
 Alpha virt. eigenvalues --    0.56745   0.57169   0.57581   0.57668   0.58121
 Alpha virt. eigenvalues --    0.58351   0.59326   0.59797   0.59907   0.60609
 Alpha virt. eigenvalues --    0.60718   0.61232   0.61641   0.62141   0.62197
 Alpha virt. eigenvalues --    0.62392   0.62555   0.62849   0.62857   0.63509
 Alpha virt. eigenvalues --    0.64123   0.64321   0.65058   0.65188   0.65651
 Alpha virt. eigenvalues --    0.65659   0.66137   0.66509   0.66600   0.67224
 Alpha virt. eigenvalues --    0.67812   0.68099   0.68355   0.69490   0.69689
 Alpha virt. eigenvalues --    0.70057   0.71179   0.71368   0.71503   0.72469
 Alpha virt. eigenvalues --    0.73440   0.73971   0.74834   0.75819   0.76900
 Alpha virt. eigenvalues --    0.77366   0.78025   0.78954   0.79836   0.81133
 Alpha virt. eigenvalues --    0.81778   0.82427   0.82795   0.83241   0.83538
 Alpha virt. eigenvalues --    0.84700   0.85027   0.85730   0.86188   0.86541
 Alpha virt. eigenvalues --    0.88912   0.89465   0.90005   0.90398   0.91055
 Alpha virt. eigenvalues --    0.91576   0.93882   0.94341   0.95541   0.96334
 Alpha virt. eigenvalues --    0.97352   0.97926   0.98129   0.99067   0.99746
 Alpha virt. eigenvalues --    1.01240   1.02528   1.02839   1.03823   1.04573
 Alpha virt. eigenvalues --    1.04998   1.06294   1.07044   1.07110   1.07302
 Alpha virt. eigenvalues --    1.07705   1.08304   1.08656   1.09442   1.09471
 Alpha virt. eigenvalues --    1.10426   1.10725   1.10915   1.11085   1.11851
 Alpha virt. eigenvalues --    1.12498   1.12927   1.13199   1.13915   1.14674
 Alpha virt. eigenvalues --    1.14968   1.16229   1.16346   1.16877   1.17249
 Alpha virt. eigenvalues --    1.18937   1.19303   1.20977   1.21430   1.21482
 Alpha virt. eigenvalues --    1.21813   1.22038   1.22595   1.22786   1.22913
 Alpha virt. eigenvalues --    1.23257   1.23616   1.25083   1.25292   1.25340
 Alpha virt. eigenvalues --    1.26122   1.26625   1.27177   1.27446   1.28025
 Alpha virt. eigenvalues --    1.28581   1.29003   1.29370   1.29701   1.29981
 Alpha virt. eigenvalues --    1.31536   1.31825   1.32605   1.33624   1.34085
 Alpha virt. eigenvalues --    1.34557   1.36457   1.38731   1.40062   1.42154
 Alpha virt. eigenvalues --    1.43101   1.44615   1.44951   1.45462   1.47873
 Alpha virt. eigenvalues --    1.49158   1.50063   1.50502   1.52775   1.59806
 Alpha virt. eigenvalues --    1.60985   1.62769   1.62998   1.63952   1.64916
 Alpha virt. eigenvalues --    1.65855   1.67349   1.67692   1.68963   1.69392
 Alpha virt. eigenvalues --    1.69671   1.69944   1.70540   1.70660   1.71642
 Alpha virt. eigenvalues --    1.73530   1.74992   1.75630   1.76914   1.77713
 Alpha virt. eigenvalues --    1.77781   1.77986   1.78779   1.79353   1.79514
 Alpha virt. eigenvalues --    1.79809   1.80100   1.80863   1.81110   1.82010
 Alpha virt. eigenvalues --    1.82591   1.82684   1.83507   1.83878   1.85370
 Alpha virt. eigenvalues --    1.86292   1.86811   1.87671   1.89314   1.89602
 Alpha virt. eigenvalues --    1.90140   1.90783   1.90860   1.91054   1.91328
 Alpha virt. eigenvalues --    1.92292   1.93006   1.93318   1.94681   1.94999
 Alpha virt. eigenvalues --    1.96188   1.97362   1.97431   1.99785   2.00587
 Alpha virt. eigenvalues --    2.02773   2.03243   2.04004   2.04602   2.05363
 Alpha virt. eigenvalues --    2.08587   2.09881   2.10071   2.10138   2.12443
 Alpha virt. eigenvalues --    2.12644   2.14967   2.15491   2.16176   2.16678
 Alpha virt. eigenvalues --    2.17687   2.17810   2.19300   2.20153   2.22729
 Alpha virt. eigenvalues --    2.23797   2.24754   2.25142   2.27192   2.27251
 Alpha virt. eigenvalues --    2.27768   2.27807   2.28082   2.28741   2.29540
 Alpha virt. eigenvalues --    2.29772   2.30399   2.30937   2.31367   2.32247
 Alpha virt. eigenvalues --    2.33531   2.34536   2.36625   2.37707   2.38311
 Alpha virt. eigenvalues --    2.38557   2.38853   2.40672   2.40714   2.41446
 Alpha virt. eigenvalues --    2.42504   2.43016   2.43887   2.45148   2.45359
 Alpha virt. eigenvalues --    2.46465   2.47009   2.47738   2.47813   2.48052
 Alpha virt. eigenvalues --    2.48436   2.49092   2.49938   2.50063   2.51368
 Alpha virt. eigenvalues --    2.51495   2.52048   2.53842   2.54232   2.55195
 Alpha virt. eigenvalues --    2.56970   2.58079   2.58102   2.59960   2.60291
 Alpha virt. eigenvalues --    2.61525   2.62290   2.62313   2.63038   2.63108
 Alpha virt. eigenvalues --    2.63708   2.66903   2.66981   2.68052   2.69039
 Alpha virt. eigenvalues --    2.71252   2.73623   2.76031   2.77207   2.79892
 Alpha virt. eigenvalues --    2.81500   2.82645   2.85809   2.86684   2.87297
 Alpha virt. eigenvalues --    2.89708   2.91264   2.92484   2.93667   2.94248
 Alpha virt. eigenvalues --    2.96698   2.99324   3.01417   3.03706   3.05467
 Alpha virt. eigenvalues --    3.06763   3.07419   3.11089   3.13927   3.14748
 Alpha virt. eigenvalues --    3.16497   3.16584   3.16757   3.18758   3.19678
 Alpha virt. eigenvalues --    3.22943   3.24432   3.26584   3.26983   3.30590
 Alpha virt. eigenvalues --    3.35154   3.37269   3.39023   3.39277   3.39894
 Alpha virt. eigenvalues --    3.43901   3.45659   3.63552   3.64312   3.76576
 Alpha virt. eigenvalues --    3.77057   4.12174   4.14756   4.15162   4.19317
 Alpha virt. eigenvalues --    4.20045   4.20777   4.21238   4.21986   4.23280
 Alpha virt. eigenvalues --    4.23865   4.24740   4.25499   4.27318   4.29420
 Alpha virt. eigenvalues --    4.29831   4.32638   4.34825   4.36659   4.37742
 Alpha virt. eigenvalues --    4.42789   4.43819   4.45940   4.51124   4.56566
 Alpha virt. eigenvalues --    4.63271   4.67769   4.81005   4.82470   4.92421
 Alpha virt. eigenvalues --    5.00653
  Beta  occ. eigenvalues --  -19.27955 -19.27816 -14.52715 -14.52635 -10.44637
  Beta  occ. eigenvalues --  -10.44565 -10.41771 -10.41625 -10.35246 -10.35186
  Beta  occ. eigenvalues --  -10.35087 -10.34924 -10.34101 -10.33694 -10.32972
  Beta  occ. eigenvalues --  -10.32846 -10.32839 -10.32836 -10.32618 -10.32401
  Beta  occ. eigenvalues --  -10.31609 -10.31548 -10.31431 -10.31364 -10.31360
  Beta  occ. eigenvalues --  -10.31299 -10.31259 -10.30968 -10.30838 -10.30749
  Beta  occ. eigenvalues --   -1.18970  -1.18402  -1.11919  -1.10492  -1.00518
  Beta  occ. eigenvalues --   -1.00187  -0.95823  -0.95610  -0.95346  -0.91019
  Beta  occ. eigenvalues --   -0.90221  -0.89357  -0.88554  -0.85696  -0.84773
  Beta  occ. eigenvalues --   -0.83959  -0.82170  -0.81630  -0.76266  -0.75168
  Beta  occ. eigenvalues --   -0.74291  -0.73775  -0.72326  -0.71928  -0.70653
  Beta  occ. eigenvalues --   -0.68416  -0.66979  -0.65491  -0.63987  -0.63720
  Beta  occ. eigenvalues --   -0.63118  -0.62231  -0.61366  -0.60348  -0.60306
  Beta  occ. eigenvalues --   -0.59412  -0.57846  -0.57253  -0.56963  -0.56664
  Beta  occ. eigenvalues --   -0.56372  -0.56142  -0.54994  -0.54615  -0.54184
  Beta  occ. eigenvalues --   -0.53713  -0.53268  -0.52623  -0.52443  -0.52344
  Beta  occ. eigenvalues --   -0.51695  -0.49673  -0.49178  -0.49147  -0.48075
[...]
 02,0.00000009,0.00001680,-0.00002337,0.00000002,0.00008631,-0.00003190
 ,-0.00000001,-0.00003409,0.00004094,0.,0.00000197,0.00000275,-0.000000
 04,-0.00010397,-0.00002297,0.,0.00000041,0.00000236,0.00000001,-0.0000
 3375,-0.00001042,0.,-0.00004468,-0.00002023,0.00000005,0.00003247,0.00
 002583,0.00000009,0.00000238,-0.00000911,-0.00000013,-0.00001868,0.000
 00199,-0.00000002,0.00000079,0.00000043,0.,-0.00000946,-0.00000533,0.0
 0000008,-0.00000116,-0.00000101,0.00000003,0.00001529,-0.00000159,0.00
 000007,0.00000037,0.00000869,-0.00000002,-0.00000111,0.00000019,0.,-0.
 00002020,-0.00001329,-0.00000018,0.00000564,-0.00000040,0.00000001,0.0
 0000038,0.,0.00000003,-0.00000030,0.00000005,0.00000002,0.00000459,0.0
 0001505,-0.00000015,-0.00000041,-0.00000052,0.00000004,-0.00000048,0.0
 0000002,0.00000004,-0.00011432,-0.00006211,-0.00000025,-0.00037825,-0.
 00183264,0.00000008,0.00029185,0.00034422,-0.00000024,-0.00431988,0.00
 316150,0.00000048,-0.00038005,0.00019944,-0.00000003,0.00123031,-0.001
 76760,0.00000019,-0.00001470,0.00001426,0.,-0.01547218,-0.02489436,0.0
 0000250,-0.00033112,0.00064123,0.00000018,-0.00016407,0.00124404,-0.00
 000004,-0.17377279,-0.13886146,0.00001788,-0.00031820,0.00269766,0.000
 00054,0.00006950,-0.00013102,-0.00000011,0.18086687,-0.00004682,0.0000
 1244,-0.00000011,0.00003479,-0.00000633,0.00000001,0.00012956,0.000021
 81,0.00000011,-0.00003479,-0.00005211,0.00000015,-0.00003558,-0.000020
 90,0.00000001,0.00005641,0.00001986,-0.00000004,0.00001545,0.00003007,
 -0.00000001,-0.00001271,0.00000453,-0.00000001,-0.00001162,0.00001163,
 -0.00000003,0.00000229,-0.00001461,0.00000001,0.00000100,0.00000267,0.
 ,0.00001123,-0.00000837,0.,-0.00006196,-0.00002946,-0.00000008,0.00004
 541,0.00003355,-0.00000008,0.00000582,-0.00001219,0.00000001,-0.000027
 33,0.00000289,0.00000002,0.00000138,0.00000040,0.00000001,-0.00001412,
 -0.00000950,-0.00000004,0.00000230,-0.00000017,0.,0.00002210,-0.000002
 24,0.00000012,0.00000249,0.00001188,0.00000008,-0.00000087,0.00000053,
 0.,-0.00002798,-0.00001916,-0.00000006,0.00000511,0.00000177,0.0000000
 3,0.00000102,-0.00000009,0.,-0.00000008,0.00000057,0.,0.00000607,0.000
 01914,-0.00000004,-0.00000074,-0.00000089,0.,-0.00000069,0.00000015,0.
 00000002,-0.00004357,0.00031319,-0.00000006,0.00056905,0.00014699,0.00
 000001,-0.00038347,0.,-0.00000004,0.00169478,0.00055637,-0.00000009,0.
 00010568,-0.00001883,-0.00000002,0.00125980,0.00110219,-0.00000029,-0.
 00002717,0.00000935,0.,0.00483838,0.00737680,-0.00000039,0.00074121,-0
 .00003542,-0.00000001,-0.00036535,0.00010118,0.00000003,-0.13836054,-0
 .22729792,0.00002037,0.00361108,-0.00370282,0.00000031,-0.00011328,0.0
 0001926,-0.00000004,0.14783717,0.23925011,0.00000019,-0.00000032,0.000
 00845,-0.00000005,-0.00000072,0.00000378,-0.00000122,-0.00000035,0.000
 02246,0.00000086,0.00000061,-0.00002687,0.00000010,0.00000094,-0.00002
 377,0.00000049,-0.00000092,0.00001637,0.00000176,-0.00000132,0.0000011
 9,-0.00000110,0.00000056,-0.00001899,-0.00000017,0.00000036,-0.0000060
 1,-0.00000088,0.00000109,0.00000268,-0.00000007,-0.00000007,0.00000192
 ,0.00000004,0.00000004,0.00002240,-0.00000177,-0.00000129,0.00000987,0
 .00000081,0.00000094,-0.00000411,-0.00000003,-0.00000001,0.00000093,0.
 00000006,0.00000006,-0.00000150,-0.00000003,0.,0.00000091,-0.00000031,
 -0.00000008,-0.00000149,0.,0.,0.00000154,0.00000066,0.00000038,0.00000
 254,-0.00000069,0.00000005,0.00000082,0.00000001,-0.00000004,0.0000004
 8,-0.00000090,-0.00000041,-0.00000118,0.00000091,-0.00000061,-0.000001
 07,-0.00000005,0.00000002,0.00000070,0.00000003,-0.00000008,0.00000051
 ,0.00000047,0.00000098,0.00000013,0.,0.,0.00000043,0.,0.,0.00000039,0.
 00000128,0.,-0.00000665,-0.00000059,0.00000096,0.00035260,-0.00000049,
 -0.00000045,-0.00005610,0.00000160,-0.00000021,0.00602234,-0.00000004,
 -0.00000008,-0.00007656,-0.00000020,-0.00000024,-0.00353113,0.,0.00000
 004,0.00020691,0.00000099,0.00000159,0.00321459,0.00000016,0.00000014,
 -0.00073433,0.00000007,-0.00000006,0.00035855,0.00001824,0.00002026,-0
 .03735589,0.00000002,0.00000029,0.00755527,-0.00000005,-0.00000002,-0.
 00104207,-0.00001984,-0.00002242,0.02526563,0.00029873,-0.00006506,-0.
 00000050,-0.00030133,0.00004856,0.00000186,0.00091763,-0.00013589,-0.0
 0000213,-0.00049528,-0.00061276,-0.00000078,-0.00024792,-0.00018705,-0
 .00000155,0.00009790,0.00031549,-0.00000105,-0.00049513,0.00081051,0.0
 0000005,0.00028401,-0.00005526,-0.00000013,0.00018175,-0.00013710,0.00
 000019,0.00055566,-0.00046334,0.00000006,-0.00000731,0.00001819,-0.000
 00025,0.00003067,-0.00001115,0.00000012,-0.00010179,-0.00004147,-0.000
 00237,0.00010612,0.00006648,-0.00000323,0.00000996,-0.00004435,0.00000
 270,-0.00011341,0.00000652,0.00000091,0.00000546,-0.00000244,0.0000002
 3,-0.00001244,-0.00002505,-0.00000234,-0.00001414,-0.00000911,-0.00000
 054,0.00000524,-0.00002410,0.00000108,0.00004691,0.00003380,0.00000183
 ,-0.00000397,0.00000301,-0.00000010,-0.00002244,-0.00003567,0.00000219
 ,-0.00003215,0.00004322,0.00000015,0.00000468,-0.00000203,-0.00000060,
 -0.00000152,0.00000546,-0.00000025,-0.00000909,-0.00000057,0.00000194,
 -0.00000503,-0.00000096,-0.00000047,0.00000112,0.00000104,-0.00000024,
 -0.00150241,-0.00146646,0.00000408,-0.00200793,0.00075245,0.00000213,0
 .00282217,0.00189026,0.00000191,0.00195518,-0.00619251,-0.00000065,-0.
 00007573,-0.00011566,0.00000068,-0.00849744,0.00040564,-0.00000739,-0.
 00055652,0.00014249,0.00000006,-0.00774802,0.03587929,0.00000742,-0.04
 137324,-0.02175789,0.00000191,-0.00001570,0.00020298,0.00000054,-0.159
 25148,0.10631038,0.00000014,-0.19405030,-0.11489667,0.00001627,-0.0050
 9219,0.00175414,0.00000157,0.01146470,-0.02047651,0.00000020,0.7293638
 2,-0.00029100,0.00205388,0.00000086,0.00000547,-0.00158852,-0.00000328
 ,-0.00146587,-0.00644846,0.00000383,0.00407199,0.00055592,0.00000065,-
 0.00250924,0.00087466,0.00000278,0.00256412,0.00334985,0.00000205,-0.0
 0259154,0.00193436,0.00000019,0.00132928,-0.00192931,0.00000022,-0.000
 83754,0.00138057,-0.00000023,0.00211707,-0.00158294,-0.00000047,0.0000
 2543,0.00017610,0.00000044,-0.00038361,-0.00011798,-0.00000026,-0.0015
 1023,-0.00092695,0.00000435,0.00121178,0.00086700,0.00000592,0.0002600
 3,-0.00027797,-0.00000477,-0.00072714,0.00000991,-0.00000168,0.0000365
 2,-0.00001909,-0.00000040,-0.00044258,-0.00030079,0.00000416,0.0002111
 8,0.00004907,0.00000092,0.00065976,-0.00007891,-0.00000220,0.00010788,
 0.00036707,-0.00000342,-0.00001640,0.00001846,0.00000016,-0.00079672,-
 0.00051795,-0.00000373,0.00007312,0.00006603,-0.00000038,0.00003012,-0
 .00001424,0.00000109,-0.00000400,0.00002047,0.00000047,0.00012123,0.00
 049554,-0.00000326,-0.00002453,-0.00002577,0.00000082,-0.00001488,-0.0
 0000040,0.00000038,-0.00507371,-0.00923811,-0.00000560,-0.01070986,0.0
 0305479,-0.00000306,0.01626705,0.00457320,-0.00000525,0.00810775,-0.03
 689068,0.00000185,-0.00095790,-0.00016759,-0.00000113,-0.01613111,0.01
 565120,0.00001566,-0.00001328,-0.00032134,-0.00000019,0.07273761,-0.01
 198608,-0.00001969,-0.06155350,0.04091832,0.00000824,-0.00038030,0.000
 20632,-0.00000095,0.04183733,-0.33245590,0.00001465,-0.04647893,-0.234
 16188,0.00001177,0.00250356,0.00053759,-0.00000086,0.01102127,-0.01795
 409,0.00000058,-0.03723999,0.66447230,0.00000156,-0.00000145,-0.000018
 04,-0.00000098,-0.00000240,-0.00003435,-0.00000433,0.,0.00017349,0.000
 00150,0.00000182,0.00016289,-0.00000039,0.00000260,0.00008041,0.000001
 65,-0.00000195,-0.00006835,0.00000593,-0.00000583,-0.00002687,-0.00000
 301,0.00000169,0.00001670,0.00000006,0.00000063,0.00000246,-0.00000294
 ,0.00000404,-0.00001206,-0.00000005,-0.00000019,0.00000291,0.00000021,
 0.00000015,-0.00000812,-0.00000565,-0.00000365,0.00005882,0.00000165,0
 .00000292,-0.00002755,-0.00000034,-0.00000002,-0.00009990,0.00000152,0
 .00000033,0.00000057,-0.00000011,0.00000009,0.00000008,-0.00000083,-0.
 00000055,0.00004307,-0.00000014,-0.00000006,0.00000060,0.00000142,0.00
 000141,0.00000944,-0.00000214,-0.00000045,0.00000418,0.,-0.00000010,-0
 .00000017,-0.00000149,-0.00000063,-0.00001308,0.00000239,-0.00000167,-
 0.00000138,-0.00000010,0.00000009,0.00000025,0.00000006,-0.00000022,0.
 00000008,0.00000104,0.00000234,0.00000305,0.00000002,0.,-0.00000060,-0
 .00000019,0.00000006,0.00000062,0.00000596,0.00000018,0.00017822,-0.00
 000241,0.00000348,-0.00098287,-0.00000306,-0.00000189,-0.00018615,0.00
 000320,0.00000124,-0.00673639,-0.00000037,-0.00000041,0.00004626,0.000
 00312,-0.00000087,0.00691621,-0.00000005,0.00000011,-0.00074110,-0.000
 00368,-0.00000273,0.00554288,0.00000786,0.00000118,0.00615498,0.000000
 14,-0.00000003,-0.00011692,0.00000742,0.00000272,-0.06179085,0.0000106
 2,0.00001756,-0.06320057,0.00000105,0.00000030,0.00821513,-0.00000111,
 0.00000268,0.00417211,-0.00004687,-0.00002047,0.14018399,-0.00010822,-
 0.00000321,-0.00000026,0.00003938,0.00004415,0.00000043,0.00019638,0.0
 0021290,-0.00000028,-0.00006218,-0.00008002,-0.00000023,-0.00002569,-0
 .00005021,-0.00000006,0.00002341,0.00004311,-0.00000018,-0.00001454,0.
 00009662,0.00000001,0.00001745,-0.00001658,-0.00000007,-0.00001143,-0.
 00000844,-0.00000004,0.00000461,-0.00009665,-0.00000001,-0.00000334,0.
 00000844,0.,-0.00000082,-0.00000653,0.00000002,-0.00003967,-0.00002513
 ,-0.00000029,0.00002877,0.00002666,-0.00000041,0.00000173,-0.00000785,
 0.00000037,-0.00001834,0.00000112,0.00000010,0.00000094,-0.00000047,0.
 00000003,-0.00000821,-0.00000782,-0.00000027,0.00000094,0.00000013,-0.
 00000009,0.00001167,0.00000011,0.00000008,-0.00000083,0.00000869,0.000
 00019,-0.00000045,0.00000014,-0.00000002,-0.00001735,-0.00001302,0.000
 00034,0.00000608,-0.00000037,0.,0.00000059,-0.00000030,-0.00000007,-0.
 00000004,0.00000011,-0.00000004,0.00000427,0.00001442,0.00000030,-0.00
 000108,-0.00000023,-0.00000007,-0.00000032,0.00000026,-0.00000004,-0.0
 0056781,0.00013408,0.00000058,0.00024829,0.00136899,0.00000026,-0.0001
 0522,-0.00013626,0.00000039,-0.00543275,-0.00076240,0.00000125,0.00003
 430,0.00002517,0.00000010,0.00027142,-0.00000507,-0.00000129,0.0000101
 7,0.00001559,0.,-0.00096513,-0.00027943,0.00000102,-0.00694658,0.03050
 462,-0.00000107,-0.00001854,0.00006938,0.00000008,-0.00246523,-0.00338
 502,0.00000054,-0.09832936,0.09783063,-0.00000002,0.00103537,-0.000217
 88,-0.00000040,0.00041889,-0.00101932,-0.00000001,0.01135445,-0.020250
 96,0.00000022,0.10062718,0.00005535,-0.00006127,0.00000010,-0.00002803
 ,0.00001830,-0.00000027,-0.00014112,0.00008976,0.00000033,-0.00003503,
 0.00004505,0.00000022,0.00007796,0.00001476,0.00000017,-0.00008944,-0.
 00009880,0.00000014,0.00005926,-0.00009041,0.,-0.00003225,0.00004013,0
 .00000005,0.00002160,-0.00002772,-0.00000004,-0.00004986,0.00007301,0.
 ,-0.00000122,-0.00000671,0.,0.00000823,0.00000879,-0.00000002,0.000063
 66,0.00003249,0.00000025,-0.00005410,-0.00003576,0.00000036,-0.0000099
 1,0.00001558,-0.00000035,0.00003956,-0.00000129,-0.00000008,-0.0000022
 4,0.00000024,-0.00000002,0.00001690,0.00001379,0.00000027,-0.00000529,
 -0.00000106,0.00000007,-0.00002329,0.00000438,-0.00000004,-0.00001081,
 -0.00001533,-0.00000020,0.00000114,-0.00000113,0.00000002,0.00002984,0
 .00002261,-0.00000035,0.00000292,-0.00000914,-0.00000002,-0.00000202,0
 .00000058,0.00000009,0.00000025,-0.00000173,0.00000005,-0.00000280,-0.
 00001635,-0.00000031,0.00000150,0.00000110,0.00000008,0.00000040,-0.00
 000022,0.00000007,0.00026739,-0.00000370,-0.00000064,-0.00019058,0.000
 04587,-0.00000023,-0.00013975,-0.00000539,-0.00000033,-0.00003322,0.00
 153422,0.00000024,0.00001709,-0.00000686,-0.00000009,0.00017767,-0.000
 12018,0.00000111,0.00000968,-0.00000537,0.,-0.00075637,0.00051644,-0.0
 0000092,-0.00050671,0.00074592,0.00000066,-0.00002205,0.00003794,-0.00
 000007,-0.00372931,-0.00180684,0.00000092,0.09814514,-0.30684820,0.000
 00518,0.00011761,0.00075339,-0.00000035,0.00057694,-0.00085729,0.00000
 004,0.01066249,-0.01704821,0.00000026,-0.10446573,0.32215993,-0.000000
 21,0.00000081,0.00000572,-0.00000006,0.00000180,0.00001204,0.00000319,
 0.00000113,-0.00005319,-0.00000234,-0.00000174,-0.00000004,-0.00000053
 ,-0.00000253,-0.00000398,-0.00000122,0.00000273,0.00000309,-0.00000474
 ,0.00000342,0.00001107,0.00000308,-0.00000158,-0.00000663,0.00000052,-
 0.00000092,-0.00000444,0.00000243,-0.00000286,-0.00002240,0.00000016,0
 .00000020,0.00000643,-0.00000007,-0.00000009,0.00000735,0.00000471,0.0
 0000325,0.00000087,-0.00000229,-0.00000244,-0.00000226,0.00000024,-0.0
 0000005,-0.00000164,0.,-0.00000029,0.00000069,0.00000008,-0.00000002,0
 .00000183,0.00000081,0.00000053,0.00000061,0.,-0.00000006,0.00000112,-
 0.00000160,-0.00000077,0.00000041,0.00000186,-0.00000009,-0.00000060,-
 0.00000003,0.00000011,0.00000066,0.00000222,0.00000115,-0.00000092,-0.
 00000249,0.00000146,-0.00000075,0.00000010,-0.00000006,0.00000113,-0.0
 0000003,0.00000019,0.00000054,-0.00000142,-0.00000272,-0.00000001,-0.0
 0000003,0.,0.00000065,0.00000012,-0.00000005,0.00000047,-0.00000351,-0
 .00000002,-0.00070161,0.00000152,-0.00000223,0.00028839,0.00000160,0.0
 0000112,0.00017205,-0.00000125,0.00000080,0.00871566,0.00000019,0.0000
 0019,0.00021367,-0.00000089,0.00000026,-0.00092424,0.00000003,-0.00000
 006,0.00007315,0.00000059,0.00000051,-0.00060288,0.00000036,-0.0000029
 3,0.00413151,-0.00000012,-0.00000006,0.00003589,0.00000021,0.00000154,
 0.00567478,0.00000114,0.00000524,-0.03901847,-0.00000055,-0.00000033,-
 0.00478637,-0.00000009,0.00000012,0.00003647,-0.00000059,0.00000168,0.
 00345178,-0.00000079,-0.00000611,0.02627156,-0.00001930,-0.00000387,-0
 .00000021,0.00002315,-0.00002765,0.00000015,-0.00003766,-0.00002528,-0
 .00000001,0.00002848,0.00002191,-0.00000006,-0.00002212,0.00000470,0.,
 0.00005081,0.00000597,-0.00000010,0.00005526,-0.00004755,0.,-0.0000360
 4,0.00000256,-0.00000008,-0.00001779,0.00002342,0.,-0.00005309,0.00002
 766,0.,0.00000124,0.00000221,0.00000003,0.00001391,-0.00000580,0.00000
 002,-0.00004597,-0.00002439,-0.00000009,0.00003272,0.00002434,-0.00000
 017,0.00000537,-0.00000786,0.00000015,-0.00001764,0.00000107,0.0000000
 2,0.00000105,0.00000033,0.00000001,-0.00001224,-0.00000799,-0.00000010
 ,0.00000289,0.00000071,-0.00000002,0.00001822,0.00000169,0.00000006,-0
 .00000009,0.00000753,0.00000012,-0.00000049,0.00000022,-0.00000001,-0.
 00002334,-0.00001496,0.00000012,0.00000617,-0.00000060,0.00000003,0.00
 000076,-0.00000002,-0.00000005,0.00000005,0.00000032,-0.00000004,0.000
 00649,0.00001732,0.00000012,-0.00000060,-0.00000060,-0.00000004,-0.000
 00050,0.00000025,-0.00000003,0.00012565,0.00002952,0.00000024,-0.00019
 012,0.00003730,0.00000009,-0.00009714,0.00022432,0.00000005,0.00082593
 ,-0.00030343,-0.00000017,0.00003174,-0.00000896,0.00000003,-0.00028818
 ,-0.00029405,-0.00000040,-0.00004598,0.00000183,0.,0.00125408,0.001440
 21,0.00000092,-0.00061174,-0.00338508,0.00000055,-0.00000245,0.0000209
 9,0.00000003,-0.00569734,-0.00046498,0.00000081,-0.01341451,0.00537380
 ,0.00000128,-0.00070239,0.00035177,0.00000003,0.00079641,0.00006493,-0
 .00000045,-0.33747225,0.04510521,0.00002164,0.00080684,-0.00002146,-0.
 00000029,0.35472174,0.00001733,0.00003480,-0.00000010,-0.00002447,-0.0
 0001482,0.00000010,-0.00002570,-0.00008292,-0.00000008,0.00005687,0.00
 002067,-0.00000013,-0.00000723,0.00002533,-0.00000001,0.00001772,0.000
 01630,-0.00000006,-0.00000465,-0.00001775,0.00000001,-0.00000014,-0.00
 000578,-0.00000006,-0.00000310,0.00001157,0.00000002,0.00000412,0.0000
 1913,0.,0.00000071,0.00000113,0.00000001,-0.00002539,0.00000492,0.0000
 0002,-0.00000830,-0.00000480,-0.00000003,0.00000773,0.00000498,-0.0000
 0011,0.00000243,-0.00000195,0.00000012,-0.00000477,-0.00000011,0.,0.00
 000033,-0.00000021,0.,-0.00000359,-0.00000218,-0.00000007,0.00000132,0
 .00000054,-0.00000002,0.00000434,0.00000032,0.,0.00000075,0.00000208,0
 .00000006,0.,0.00000008,0.,-0.00000569,-0.00000369,0.00000013,0.000000
 86,0.00000062,0.00000001,0.00000034,-0.00000009,-0.00000004,0.,0.00000
 019,-0.00000003,0.00000143,0.00000387,0.00000012,-0.00000028,-0.000000
 12,-0.00000004,0.,0.00000010,-0.00000003,-0.00017298,-0.00019518,0.000
 00024,-0.00014274,0.00026842,0.00000005,0.00034398,-0.00040058,0.00000
 008,0.00010154,-0.00095774,0.00000007,0.00005516,-0.00002824,0.0000000
 3,0.00116662,0.00061903,-0.00000050,0.00015551,-0.00003146,0.,0.001201
 96,-0.00554701,0.00000085,-0.00326483,-0.00397618,0.00000059,-0.000016
 25,-0.00000862,0.00000003,0.03029620,-0.00012475,-0.00000223,-0.025139
 75,0.00846221,0.00000187,-0.00126967,0.00028560,0.00000009,-0.00025034
 ,0.00099302,-0.00000026,0.04464665,-0.06757946,-0.00000231,0.00043356,
 0.00089464,-0.00000021,-0.04814760,0.06731412,0.00000005,0.00000007,-0
 .00005404,-0.00000010,0.00000019,0.00000697,0.00000055,0.00000030,0.00
 009762,-0.00000038,-0.00000030,0.00000616,-0.00000014,-0.00000034,-0.0
 0001193,-0.00000012,0.00000049,0.00001146,-0.00000078,0.00000049,-0.00
 000077,0.00000052,-0.00000026,-0.00000453,0.00000009,-0.00000011,0.000
 00251,0.00000039,-0.00000044,-0.00000715,0.00000001,0.00000002,0.00000
 370,0.,0.,-0.00001239,0.00000066,0.00000042,0.00000222,-0.00000034,-0.
 00000033,-0.00000283,0.00000007,-0.00000003,0.00000203,0.,-0.00000007,
 0.00000020,0.00000001,-0.00000001,0.00000094,0.00000011,0.00000012,-0.
 00000292,0.,-0.00000001,0.00000091,-0.00000021,-0.00000004,0.00000047,
 0.00000029,0.,-0.00000007,0.,0.00000002,0.00000064,0.00000028,0.000000
 16,0.00000019,-0.00000038,0.00000019,-0.00000044,0.,-0.00000001,0.0000
 0068,0.,0.00000003,0.00000048,-0.00000023,-0.00000041,-0.00000060,-0.0
 0000001,0.,0.00000043,0.00000005,0.,0.00000039,-0.00000052,0.00000005,
 0.00026979,0.00000017,-0.00000037,-0.00088199,0.00000023,0.00000014,-0
 .00063708,-0.00000048,0.00000009,-0.00073395,0.00000003,0.00000003,0.0
 0002872,-0.00000021,0.,-0.00021306,0.,0.,0.00010488,0.00000051,0.00000
 061,0.00826507,0.00000061,0.00000063,0.00580883,-0.00000001,0.,0.00011
 778,-0.00000058,0.00000051,0.00562446,0.00000288,-0.00000062,0.0052610
 9,0.00000007,-0.00000008,-0.00038577,-0.00000042,-0.00000027,-0.004395
 25,0.00002182,-0.00000247,-0.04135587,-0.00000032,-0.00000019,-0.00298
 915,-0.00002418,0.00000183,0.02607117||0.00000684,0.00001139,-0.000014
 55,-0.00001451,-0.00001459,0.00004716,-0.00000358,-0.00000233,-0.00000
 096,-0.00000292,-0.00000491,-0.00000898,0.00000331,0.00000173,-0.00001
 079,0.00000238,0.00000777,-0.00000861,0.00001035,0.00002607,0.00002786
 ,-0.00000666,-0.00001274,-0.00000623,0.00000178,0.00000065,-0.00001533
 ,-0.00000083,-0.00000816,-0.00000891,0.00000061,0.00000077,0.00000010,
 0.00000131,-0.00000151,-0.00000174,0.00000673,-0.00000384,0.,-0.000004
 25,0.00000045,0.00000059,0.00000365,0.00000066,0.00000053,0.00000204,-
 0.00000554,-0.00000022,0.00000243,-0.00000013,0.,-0.00000621,-0.000004
 79,-0.00000006,-0.00000091,-0.00000119,0.00000002,0.00000314,0.0000029
 3,0.00000007,-0.00000080,-0.00000095,-0.00000009,0.00000052,-0.0000015
 6,-0.00000011,-0.00000422,-0.00000782,0.,0.00000094,-0.00000476,0.,0.0
 0000147,-0.00000153,0.00000001,0.00000021,-0.00000228,-0.00000002,0.00
 000024,0.00000166,0.00000006,0.00000104,-0.00000271,0.,0.00000007,-0.0
 0000362,-0.00000002,-0.00001143,-0.00002241,0.00000014,-0.00000515,0.0
 0001352,0.00000033,0.00001240,0.00001105,0.00000037,0.00000090,0.00000
 008,-0.00000030,0.00000231,0.00000036,-0.00000003,-0.00000514,0.000002
 94,0.00000012,-0.00000418,-0.00000050,-0.00000032,0.00000307,0.0000050
 7,0.,0.00000317,0.00000400,-0.00000001,-0.00000086,0.00000218,-0.00000
 009,-0.00000147,-0.00000495,-0.00000005,-0.00000102,-0.00000070,0.,0.0
 0000023,0.00000181,0.00000001,0.00000002,0.00000383,-0.00000002,0.0000
 0223,0.00000805,0.00000007,0.00000046,0.00000282,-0.00000002,0.0000003
 0,0.00000373,-0.00000001|||@


 DIATOMIC MOLECULES ARE PECULIAR BECAUSE THEY ONLY HAVE TWO ENDS,
 AND THESE ENDS ARE VERY CLOSE TOGETHER.
 KLAUS RUEDENBERG, REV.MOD.PHYS. PG 176, 32, (1960)
 Job cpu time:  0 days 11 hours 57 minutes 43.0 seconds.
 File lengths (MBytes):  RWF=   3285 Int=      0 D2E=      0 Chk=     36 Scr=      1
 Normal termination of Gaussian 09 at Tue Jul 18 08:18:48 2023.
