 Entering Link 1 = C:\G09W\l1.exe PID=      7344.
  
 Copyright (c) 1988,1990,1992,1993,1995,1998,2003,2009,2010,
            Gaussian, Inc.  All Rights Reserved.
  
 This is part of the Gaussian(R) 09 program.  It is based on
 the Gaussian(R) 03 system (copyright 2003, Gaussian, Inc.),
 the Gaussian(R) 98 system (copyright 1998, Gaussian, Inc.),
 the Gaussian(R) 94 system (copyright 1995, Gaussian, Inc.),
 the Gaussian 92(TM) system (copyright 1992, Gaussian, Inc.),
 the Gaussian 90(TM) system (copyright 1990, Gaussian, Inc.),
 the Gaussian 88(TM) system (copyright 1988, Gaussian, Inc.),
 the Gaussian 86(TM) system (copyright 1986, Carnegie Mellon
 University), and the Gaussian 82(TM) system (copyright 1983,
 Carnegie Mellon University). Gaussian is a federally registered
 trademark of Gaussian, Inc.
  
 This software contains proprietary and confidential information,
 including trade secrets, belonging to Gaussian, Inc.
  
 This software is provided under written license and may be
 used, copied, transmitted, or stored only in accord with that
 written license.
  
 The following legend is applicable only to US Government
 contracts under FAR:
  
                    RESTRICTED RIGHTS LEGEND
  
 Use, reproduction and disclosure by the US Government is
 subject to restrictions as set forth in subparagraphs (a)
 and (c) of the Commercial Computer Software - Restricted
 Rights clause in FAR 52.227-19.
  
 Gaussian, Inc.
 340 Quinnipiac St., Bldg. 40, Wallingford CT 06492
  
  
 ---------------------------------------------------------------
 Warning -- This program may not be used in any manner that
 competes with the business of Gaussian, Inc. or will provide
 assistance to any competitor of Gaussian, Inc.  The licensee
 of this program is prohibited from giving any competitor of
 Gaussian, Inc. access to this program.  By using this program,
 the user acknowledges that Gaussian, Inc. is engaged in the
 business of creating and licensing software in the field of
 computational chemistry and represents and warrants to the
 licensee that it is not a competitor of Gaussian, Inc. and that
 it will not use this program in any manner prohibited above.
 ---------------------------------------------------------------
  

 Cite this work as:
 Gaussian 09, Revision B.01,
 M. J. Frisch, G. W. Trucks, H. B. Schlegel, G. E. Scuseria, 
 M. A. Robb, J. R. Cheeseman, G. Scalmani, V. Barone, B. Mennucci, 
 G. A. Petersson, H. Nakatsuji, M. Caricato, X. Li, H. P. Hratchian, 
 A. F. Izmaylov, J. Bloino, G. Zheng, J. L. Sonnenberg, M. Hada, 
 M. Ehara, K. Toyota, R. Fukuda, J. Hasegawa, M. Ishida, T. Nakajima, 
 Y. Honda, O. Kitao, H. Nakai, T. Vreven, J. A. Montgomery, Jr., 
 J. E. Peralta, F. Ogliaro, M. Bearpark, J. J. Heyd, E. Brothers, 
 K. N. Kudin, V. N. Staroverov, T. Keith, R. Kobayashi, J. Normand, 
 K. Raghavachari, A. Rendell, J. C. Burant, S. S. Iyengar, J. Tomasi, 
 M. Cossi, N. Rega, J. M. Millam, M. Klene, J. E. Knox, J. B. Cross, 
 V. Bakken, C. Adamo, J. Jaramillo, R. Gomperts, R. E. Stratmann, 
 O. Yazyev, A. J. Austin, R. Cammi, C. Pomelli, J. W. Ochterski, 
 R. L. Martin, K. Morokuma, V. G. Zakrzewski, G. A. Voth, 
 P. Salvador, J. J. Dannenberg, S. Dapprich, A. D. Daniels, 
 O. Farkas, J. B. Foresman, J. V. Ortiz, J. Cioslowski, 
 and D. J. Fox, Gaussian, Inc., Wallingford CT, 2010.
 
 ******************************************
 Gaussian 09:  IA32W-G09RevB.01 12-Aug-2010
                16-Jul-2023 
 ******************************************
 %nprocshared=6
 Will use up to    6 processors via shared memory.
 %chk=G:\Meu Drive\POS-DOC-IME\SUBSTITUINTES-DOADORES\DPP-substituido\DPP-SUB-2-O
 PT-FREQ.chk
 ----------------------------------------------------
 # opt freq b3lyp/6-31+g(d,p) geom=connectivity polar
 ----------------------------------------------------
 1/14=-1,18=20,19=15,26=3,38=1,57=2/1,3;
 2/9=110,12=2,17=6,18=5,40=1/2;
 3/5=1,6=6,7=111,11=2,16=1,25=1,30=1,71=1,74=-5/1,2,3;
 4//1;
 5/5=2,38=5,98=1/2;
 6/7=2,8=2,9=2,10=2,28=1/1;
 7//1,2,3,16;
 1/14=-1,18=20,19=15/3(2);
 2/9=110/2;
 99//99;
 2/9=110/2;
 3/5=1,6=6,7=111,11=2,16=1,25=1,30=1,71=1,74=-5/1,2,3;
 4/5=5,16=3/1;
 5/5=2,38=5,98=1/2;
 7//1,2,3,16;
 1/14=-1,18=20,19=15/3(-5);
 2/9=110/2;
 6/7=2,8=2,9=2,10=2,19=2,28=1/1;
 99/9=1/99;
 -------
 Energy:
 -------
 Symbolic Z-matrix:
 Charge =  0 Multiplicity = 1
 N                     1.76306  -1.18283   0.0001 
 C                     1.8097    0.24999  -0.00004 
 C                     0.47019  -1.66717   0.00005 
 C                    -0.39109  -0.60674  -0.00004 
 C                     0.39109   0.60674   0. 
 C                    -0.47019   1.66717   0.00004 
 C                    -1.8097   -0.24999  -0.00015 
 N                    -1.76306   1.18283  -0.00001 
 O                     2.84314   0.89886  -0.00003 
 O                    -2.84314  -0.89886   0.00002 
 H                    -2.60337   1.74285   0.00039 
 H                     2.60337  -1.74285  -0.00014 
 C                    -0.18893   3.18127   0.00013 
 C                    -1.23528   4.07819   0.00015 
 C                     1.15106   3.64595   0.0002 
 C                    -0.99477   5.4802    0.00022 
 H                    -2.26291   3.72346   0.00012 
 C                     1.41736   4.99816   0.00029 
 H                     1.96798   2.93018   0.00011 
 C                     0.36046   5.95016   0.00029 
 C                    -2.05172   6.43212   0.00022 
 H                     2.44391   5.35605   0.00035 
 C                     0.60103   7.35212   0.00036 
 C                    -1.78533   7.78434   0.00031 
 H                    -3.07825   6.07422   0.00017 
 H                     1.62866   7.70684   0.00039 
 C                    -0.44539   8.24901   0.00037 
 H                    -2.60218   8.5002    0.00039 
 H                    -0.24713   9.31691   0.00044 
 C                     0.18893  -3.18127   0.00009 
 C                    -1.10972  -3.64259   0.00003 
 C                     1.27265  -4.09617   0.00018 
 C                    -1.38876  -5.03744   0.0001 
 H                    -1.94141  -2.94248  -0.00006 
 C                     1.03558  -5.45381   0.00021 
 H                     2.29212  -3.72153   0.00029 
 C                    -0.29271  -5.96274   0.00019 
 C                    -2.71705  -5.54628   0.00007 
 H                     1.86512  -6.15649   0.00028 
 C                    -0.57166  -7.35758   0.00024 
 C                    -2.95405  -6.90396   0.0001 
 H                    -3.54657  -4.84361  0. 
 H                     0.26003  -8.05768   0.00033 
 C                    -1.87037  -7.81884   0.0002 
 H                    -3.97349  -7.27872  -0.00001 
 H                    -2.06885  -8.8867    0.00022 
 

 GradGradGradGradGradGradGradGradGradGradGradGradGradGradGradGradGradGrad
 Berny optimization.
 Initialization pass.
                           ----------------------------
                           !    Initial Parameters    !
                           ! (Angstroms and Degrees)  !
 --------------------------                            --------------------------
 ! Name  Definition              Value          Derivative Info.                !
 --------------------------------------------------------------------------------
 ! R1    R(1,2)                  1.4336         estimate D2E/DX2                !
 ! R2    R(1,3)                  1.3806         estimate D2E/DX2                !
 ! R3    R(1,12)                 1.0098         estimate D2E/DX2                !
 ! R4    R(2,5)                  1.4628         estimate D2E/DX2                !
 ! R5    R(2,9)                  1.2203         estimate D2E/DX2                !
 ! R6    R(3,4)                  1.3661         estimate D2E/DX2                !
 ! R7    R(3,30)                 1.54           estimate D2E/DX2                !
 ! R8    R(4,5)                  1.4437         estimate D2E/DX2                !
 ! R9    R(4,7)                  1.4628         estimate D2E/DX2                !
 ! R10   R(5,6)                  1.3661         estimate D2E/DX2                !
 ! R11   R(6,8)                  1.3806         estimate D2E/DX2                !
 ! R12   R(6,13)                 1.54           estimate D2E/DX2                !
 ! R13   R(7,8)                  1.4336         estimate D2E/DX2                !
 ! R14   R(7,10)                 1.2203         estimate D2E/DX2                !
 ! R15   R(8,11)                 1.0098         estimate D2E/DX2                !
 ! R16   R(13,14)                1.3782         estimate D2E/DX2                !
 ! R17   R(13,15)                1.4183         estimate D2E/DX2                !
 ! R18   R(14,16)                1.4225         estimate D2E/DX2                !
 ! R19   R(14,17)                1.0871         estimate D2E/DX2                !
 ! R20   R(15,18)                1.3782         estimate D2E/DX2                !
 ! R21   R(15,19)                1.0861         estimate D2E/DX2                !
 ! R22   R(16,20)                1.4344         estimate D2E/DX2                !
 ! R23   R(16,21)                1.4224         estimate D2E/DX2                !
 ! R24   R(18,20)                1.4224         estimate D2E/DX2                !
 ! R25   R(18,22)                1.0871         estimate D2E/DX2                !
 ! R26   R(20,23)                1.4225         estimate D2E/DX2                !
 ! R27   R(21,24)                1.3782         estimate D2E/DX2                !
 ! R28   R(21,25)                1.0871         estimate D2E/DX2                !
 ! R29   R(23,26)                1.0871         estimate D2E/DX2                !
 ! R30   R(23,27)                1.3782         estimate D2E/DX2                !
 ! R31   R(24,27)                1.4182         estimate D2E/DX2                !
 ! R32   R(24,28)                1.0861         estimate D2E/DX2                !
 ! R33   R(27,29)                1.0862         estimate D2E/DX2                !
 ! R34   R(30,31)                1.3782         estimate D2E/DX2                !
 ! R35   R(30,32)                1.4183         estimate D2E/DX2                !
 ! R36   R(31,33)                1.4225         estimate D2E/DX2                !
 ! R37   R(31,34)                1.0871         estimate D2E/DX2                !
 ! R38   R(32,35)                1.3782         estimate D2E/DX2                !
 ! R39   R(32,36)                1.0861         estimate D2E/DX2                !
 ! R40   R(33,37)                1.4344         estimate D2E/DX2                !
 ! R41   R(33,38)                1.4224         estimate D2E/DX2                !
 ! R42   R(35,37)                1.4224         estimate D2E/DX2                !
 ! R43   R(35,39)                1.0871         estimate D2E/DX2                !
 ! R44   R(37,40)                1.4225         estimate D2E/DX2                !
 ! R45   R(38,41)                1.3782         estimate D2E/DX2                !
 ! R46   R(38,42)                1.0871         estimate D2E/DX2                !
 ! R47   R(40,43)                1.0871         estimate D2E/DX2                !
 ! R48   R(40,44)                1.3782         estimate D2E/DX2                !
 ! R49   R(41,44)                1.4182         estimate D2E/DX2                !
 ! R50   R(41,45)                1.0861         estimate D2E/DX2                !
 ! R51   R(44,46)                1.0862         estimate D2E/DX2                !
 ! A1    A(2,1,3)              112.4013         estimate D2E/DX2                !
 ! A2    A(2,1,12)             121.8167         estimate D2E/DX2                !
 ! A3    A(3,1,12)             125.782          estimate D2E/DX2                !
 ! A4    A(1,2,5)              102.2517         estimate D2E/DX2                !
 ! A5    A(1,2,9)              123.9879         estimate D2E/DX2                !
 ! A6    A(5,2,9)              133.7604         estimate D2E/DX2                !
 ! A7    A(1,3,4)              108.5463         estimate D2E/DX2                !
 ! A8    A(1,3,30)             121.0601         estimate D2E/DX2                !
 ! A9    A(4,3,30)             130.3936         estimate D2E/DX2                !
 ! A10   A(3,4,5)              108.1121         estimate D2E/DX2                !
 ! A11   A(3,4,7)              143.1993         estimate D2E/DX2                !
 ! A12   A(5,4,7)              108.6886         estimate D2E/DX2                !
 ! A13   A(2,5,4)              108.6886         estimate D2E/DX2                !
 ! A14   A(2,5,6)              143.1993         estimate D2E/DX2                !
 ! A15   A(4,5,6)              108.1121         estimate D2E/DX2                !
 ! A16   A(5,6,8)              108.5463         estimate D2E/DX2                !
 ! A17   A(5,6,13)             130.3935         estimate D2E/DX2                !
 ! A18   A(8,6,13)             121.0602         estimate D2E/DX2                !
 ! A19   A(4,7,8)              102.2517         estimate D2E/DX2                !
 ! A20   A(4,7,10)             133.7604         estimate D2E/DX2                !
 ! A21   A(8,7,10)             123.9879         estimate D2E/DX2                !
 ! A22   A(6,8,7)              112.4013         estimate D2E/DX2                !
 ! A23   A(6,8,11)             125.782          estimate D2E/DX2                !
 ! A24   A(7,8,11)             121.8167         estimate D2E/DX2                !
 ! A25   A(6,13,14)            120.0798         estimate D2E/DX2                !
 ! A26   A(6,13,15)            119.6488         estimate D2E/DX2                !
 ! A27   A(14,13,15)           120.2714         estimate D2E/DX2                !
 ! A28   A(13,14,16)           120.8693         estimate D2E/DX2                !
 ! A29   A(13,14,17)           120.3529         estimate D2E/DX2                !
 ! A30   A(16,14,17)           118.7778         estimate D2E/DX2                !
 ! A31   A(13,15,18)           120.2667         estimate D2E/DX2                !
 ! A32   A(13,15,19)           119.6502         estimate D2E/DX2                !
 ! A33   A(18,15,19)           120.0832         estimate D2E/DX2                !
 ! A34   A(14,16,20)           118.8589         estimate D2E/DX2                !
 ! A35   A(14,16,21)           122.2734         estimate D2E/DX2                !
 ! A36   A(20,16,21)           118.8676         estimate D2E/DX2                !
 ! A37   A(15,18,20)           120.8695         estimate D2E/DX2                !
 ! A38   A(15,18,22)           120.3615         estimate D2E/DX2                !
 ! A39   A(20,18,22)           118.769          estimate D2E/DX2                !
 ! A40   A(16,20,18)           118.8643         estimate D2E/DX2                !
 ! A41   A(16,20,23)           118.8621         estimate D2E/DX2                !
 ! A42   A(18,20,23)           122.2736         estimate D2E/DX2                !
 ! A43   A(16,21,24)           120.8628         estimate D2E/DX2                !
 ! A44   A(16,21,25)           118.7719         estimate D2E/DX2                !
 ! A45   A(24,21,25)           120.3653         estimate D2E/DX2                !
 ! A46   A(20,23,26)           118.7805         estimate D2E/DX2                !
 ! A47   A(20,23,27)           120.8628         estimate D2E/DX2                !
 ! A48   A(26,23,27)           120.3567         estimate D2E/DX2                !
 ! A49   A(21,24,27)           120.27           estimate D2E/DX2                !
 ! A50   A(21,24,28)           120.0858         estimate D2E/DX2                !
 ! A51   A(27,24,28)           119.6441         estimate D2E/DX2                !
 ! A52   A(23,27,24)           120.2745         estimate D2E/DX2                !
 ! A53   A(23,27,29)           120.0824         estimate D2E/DX2                !
 ! A54   A(24,27,29)           119.643          estimate D2E/DX2                !
 ! A55   A(3,30,31)            120.0798         estimate D2E/DX2                !
 ! A56   A(3,30,32)            119.6488         estimate D2E/DX2                !
 ! A57   A(31,30,32)           120.2714         estimate D2E/DX2                !
 ! A58   A(30,31,33)           120.8693         estimate D2E/DX2                !
 ! A59   A(30,31,34)           120.3529         estimate D2E/DX2                !
 ! A60   A(33,31,34)           118.7778         estimate D2E/DX2                !
 ! A61   A(30,32,35)           120.2667         estimate D2E/DX2                !
 ! A62   A(30,32,36)           119.6502         estimate D2E/DX2                !
 ! A63   A(35,32,36)           120.0832         estimate D2E/DX2                !
 ! A64   A(31,33,37)           118.8589         estimate D2E/DX2                !
 ! A65   A(31,33,38)           122.2734         estimate D2E/DX2                !
 ! A66   A(37,33,38)           118.8676         estimate D2E/DX2                !
 ! A67   A(32,35,37)           120.8695         estimate D2E/DX2                !
 ! A68   A(32,35,39)           120.3615         estimate D2E/DX2                !
 ! A69   A(37,35,39)           118.769          estimate D2E/DX2                !
 ! A70   A(33,37,35)           118.8643         estimate D2E/DX2                !
 ! A71   A(33,37,40)           118.8621         estimate D2E/DX2                !
 ! A72   A(35,37,40)           122.2736         estimate D2E/DX2                !
 ! A73   A(33,38,41)           120.8628         estimate D2E/DX2                !
 ! A74   A(33,38,42)           118.7719         estimate D2E/DX2                !
 ! A75   A(41,38,42)           120.3653         estimate D2E/DX2                !
 ! A76   A(37,40,43)           118.7805         estimate D2E/DX2                !
 ! A77   A(37,40,44)           120.8628         estimate D2E/DX2                !
 ! A78   A(43,40,44)           120.3567         estimate D2E/DX2                !
 ! A79   A(38,41,44)           120.27           estimate D2E/DX2                !
 ! A80   A(38,41,45)           120.0858         estimate D2E/DX2                !
 ! A81   A(44,41,45)           119.6441         estimate D2E/DX2                !
 ! A82   A(40,44,41)           120.2745         estimate D2E/DX2                !
 ! A83   A(40,44,46)           120.0824         estimate D2E/DX2                !
 ! A84   A(41,44,46)           119.643          estimate D2E/DX2                !
 ! D1    D(3,1,2,5)              0.0076         estimate D2E/DX2                !
 ! D2    D(3,1,2,9)           -179.9996         estimate D2E/DX2                !
 ! D3    D(12,1,2,5)           179.9834         estimate D2E/DX2                !
 ! D4    D(12,1,2,9)            -0.0239         estimate D2E/DX2                !
 ! D5    D(2,1,3,4)             -0.0038         estimate D2E/DX2                !
 ! D6    D(2,1,3,30)           179.9962         estimate D2E/DX2                !
 ! D7    D(12,1,3,4)          -179.9784         estimate D2E/DX2                !
 ! D8    D(12,1,3,30)            0.0216         estimate D2E/DX2                !
 ! D9    D(1,2,5,4)             -0.0085         estimate D2E/DX2                !
 ! D10   D(1,2,5,6)            179.9935         estimate D2E/DX2                !
 ! D11   D(9,2,5,4)            179.9998         estimate D2E/DX2                !
 ! D12   D(9,2,5,6)              0.0019         estimate D2E/DX2                !
 ! D13   D(1,3,4,5)             -0.002          estimate D2E/DX2                !
 ! D14   D(1,3,4,7)            179.9993         estimate D2E/DX2                !
 ! D15   D(30,3,4,5)           179.998          estimate D2E/DX2                !
 ! D16   D(30,3,4,7)            -0.0007         estimate D2E/DX2                !
 ! D17   D(1,3,30,31)         -180.0            estimate D2E/DX2                !
 ! D18   D(1,3,30,32)            0.0001         estimate D2E/DX2                !
 ! D19   D(4,3,30,31)            0.0            estimate D2E/DX2                !
 ! D20   D(4,3,30,32)         -180.0            estimate D2E/DX2                !
 ! D21   D(3,4,5,2)              0.0069         estimate D2E/DX2                !
 ! D22   D(3,4,5,6)           -179.9944         estimate D2E/DX2                !
 ! D23   D(7,4,5,2)           -179.994          estimate D2E/DX2                !
 ! D24   D(7,4,5,6)              0.0047         estimate D2E/DX2                !
 ! D25   D(3,4,7,8)            179.9926         estimate D2E/DX2                !
 ! D26   D(3,4,7,10)             0.0137         estimate D2E/DX2                !
 ! D27   D(5,4,7,8)             -0.0061         estimate D2E/DX2                !
 ! D28   D(5,4,7,10)          -179.985          estimate D2E/DX2                !
 ! D29   D(2,5,6,8)            179.9968         estimate D2E/DX2                !
 ! D30   D(2,5,6,13)            -0.0041         estimate D2E/DX2                !
 ! D31   D(4,5,6,8)             -0.0011         estimate D2E/DX2                !
 ! D32   D(4,5,6,13)           179.998          estimate D2E/DX2                !
 ! D33   D(5,6,8,7)             -0.0031         estimate D2E/DX2                !
 ! D34   D(5,6,8,11)           179.9734         estimate D2E/DX2                !
 ! D35   D(13,6,8,7)           179.9977         estimate D2E/DX2                !
 ! D36   D(13,6,8,11)           -0.0258         estimate D2E/DX2                !
 ! D37   D(5,6,13,14)          180.0            estimate D2E/DX2                !
 ! D38   D(5,6,13,15)            0.0001         estimate D2E/DX2                !
 ! D39   D(8,6,13,14)           -0.001          estimate D2E/DX2                !
 ! D40   D(8,6,13,15)          179.9991         estimate D2E/DX2                !
 ! D41   D(4,7,8,6)              0.0057         estimate D2E/DX2                !
 ! D42   D(4,7,8,11)          -179.9718         estimate D2E/DX2                !
 ! D43   D(10,7,8,6)           179.9873         estimate D2E/DX2                !
 ! D44   D(10,7,8,11)            0.0098         estimate D2E/DX2                !
 ! D45   D(6,13,14,16)        -179.9988         estimate D2E/DX2                !
 ! D46   D(6,13,14,17)           0.0011         estimate D2E/DX2                !
 ! D47   D(15,13,14,16)          0.0011         estimate D2E/DX2                !
 ! D48   D(15,13,14,17)       -179.9989         estimate D2E/DX2                !
 ! D49   D(6,13,15,18)        -179.9996         estimate D2E/DX2                !
 ! D50   D(6,13,15,19)           0.0038         estimate D2E/DX2                !
 ! D51   D(14,13,15,18)          0.0005         estimate D2E/DX2                !
 ! D52   D(14,13,15,19)       -179.9961         estimate D2E/DX2                !
 ! D53   D(13,14,16,20)         -0.0014         estimate D2E/DX2                !
 ! D54   D(13,14,16,21)        179.9989         estimate D2E/DX2                !
 ! D55   D(17,14,16,20)        179.9987         estimate D2E/DX2                !
 ! D56   D(17,14,16,21)         -0.001          estimate D2E/DX2                !
 ! D57   D(13,15,18,20)         -0.0018         estimate D2E/DX2                !
 ! D58   D(13,15,18,22)        179.9995         estimate D2E/DX2                !
 ! D59   D(19,15,18,20)        179.9948         estimate D2E/DX2                !
 ! D60   D(19,15,18,22)         -0.004          estimate D2E/DX2                !
 ! D61   D(14,16,20,18)          0.0001         estimate D2E/DX2                !
 ! D62   D(14,16,20,23)       -179.9997         estimate D2E/DX2                !
 ! D63   D(21,16,20,18)        179.9998         estimate D2E/DX2                !
 ! D64   D(21,16,20,23)          0.0            estimate D2E/DX2                !
 ! D65   D(14,16,21,24)        179.9986         estimate D2E/DX2                !
 ! D66   D(14,16,21,25)         -0.0003         estimate D2E/DX2                !
 ! D67   D(20,16,21,24)         -0.0011         estimate D2E/DX2                !
 ! D68   D(20,16,21,25)        179.9999         estimate D2E/DX2                !
 ! D69   D(15,18,20,16)          0.0015         estimate D2E/DX2                !
 ! D70   D(15,18,20,23)       -179.9987         estimate D2E/DX2                !
 ! D71   D(22,18,20,16)       -179.9997         estimate D2E/DX2                !
 ! D72   D(22,18,20,23)          0.0001         estimate D2E/DX2                !
 ! D73   D(16,20,23,26)       -179.9989         estimate D2E/DX2                !
 ! D74   D(16,20,23,27)          0.0008         estimate D2E/DX2                !
 ! D75   D(18,20,23,26)          0.0013         estimate D2E/DX2                !
 ! D76   D(18,20,23,27)       -179.999          estimate D2E/DX2                !
 ! D77   D(16,21,24,27)          0.0014         estimate D2E/DX2                !
 ! D78   D(16,21,24,28)       -179.995          estimate D2E/DX2                !
 ! D79   D(25,21,24,27)       -179.9996         estimate D2E/DX2                !
 ! D80   D(25,21,24,28)          0.0039         estimate D2E/DX2                !
 ! D81   D(20,23,27,24)         -0.0006         estimate D2E/DX2                !
 ! D82   D(20,23,27,29)        179.9991         estimate D2E/DX2                !
 ! D83   D(26,23,27,24)        179.9992         estimate D2E/DX2                !
 ! D84   D(26,23,27,29)         -0.0012         estimate D2E/DX2                !
 ! D85   D(21,24,27,23)         -0.0006         estimate D2E/DX2                !
 ! D86   D(21,24,27,29)        179.9998         estimate D2E/DX2                !
 ! D87   D(28,24,27,23)        179.9959         estimate D2E/DX2                !
 ! D88   D(28,24,27,29)         -0.0037         estimate D2E/DX2                !
 ! D89   D(3,30,31,33)        -179.9988         estimate D2E/DX2                !
 ! D90   D(3,30,31,34)           0.0011         estimate D2E/DX2                !
 ! D91   D(32,30,31,33)          0.0011         estimate D2E/DX2                !
 ! D92   D(32,30,31,34)       -179.9989         estimate D2E/DX2                !
 ! D93   D(3,30,32,35)        -179.9996         estimate D2E/DX2                !
 ! D94   D(3,30,32,36)           0.0038         estimate D2E/DX2                !
 ! D95   D(31,30,32,35)          0.0005         estimate D2E/DX2                !
 ! D96   D(31,30,32,36)       -179.9961         estimate D2E/DX2                !
 ! D97   D(30,31,33,37)         -0.0014         estimate D2E/DX2                !
 ! D98   D(30,31,33,38)        179.9989         estimate D2E/DX2                !
 ! D99   D(34,31,33,37)        179.9987         estimate D2E/DX2                !
 ! D100  D(34,31,33,38)         -0.001          estimate D2E/DX2                !
 ! D101  D(30,32,35,37)         -0.0018         estimate D2E/DX2                !
 ! D102  D(30,32,35,39)        179.9995         estimate D2E/DX2                !
 ! D103  D(36,32,35,37)        179.9948         estimate D2E/DX2                !
 ! D104  D(36,32,35,39)         -0.004          estimate D2E/DX2                !
 ! D105  D(31,33,37,35)          0.0001         estimate D2E/DX2                !
 ! D106  D(31,33,37,40)       -179.9997         estimate D2E/DX2                !
 ! D107  D(38,33,37,35)        179.9998         estimate D2E/DX2                !
 ! D108  D(38,33,37,40)          0.0            estimate D2E/DX2                !
 ! D109  D(31,33,38,41)        179.9986         estimate D2E/DX2                !
 ! D110  D(31,33,38,42)         -0.0004         estimate D2E/DX2                !
 ! D111  D(37,33,38,41)         -0.0011         estimate D2E/DX2                !
 ! D112  D(37,33,38,42)        179.9999         estimate D2E/DX2                !
 ! D113  D(32,35,37,33)          0.0015         estimate D2E/DX2                !
 ! D114  D(32,35,37,40)       -179.9987         estimate D2E/DX2                !
 ! D115  D(39,35,37,33)       -179.9997         estimate D2E/DX2                !
 ! D116  D(39,35,37,40)          0.0001         estimate D2E/DX2                !
 ! D117  D(33,37,40,43)       -179.9989         estimate D2E/DX2                !
 ! D118  D(33,37,40,44)          0.0008         estimate D2E/DX2                !
 ! D119  D(35,37,40,43)          0.0013         estimate D2E/DX2                !
 ! D120  D(35,37,40,44)       -179.999          estimate D2E/DX2                !
 ! D121  D(33,38,41,44)          0.0014         estimate D2E/DX2                !
 ! D122  D(33,38,41,45)       -179.995          estimate D2E/DX2                !
 ! D123  D(42,38,41,44)       -179.9996         estimate D2E/DX2                !
 ! D124  D(42,38,41,45)          0.0039         estimate D2E/DX2                !
 ! D125  D(37,40,44,41)         -0.0006         estimate D2E/DX2                !
 ! D126  D(37,40,44,46)        179.9991         estimate D2E/DX2                !
 ! D127  D(43,40,44,41)        179.9992         estimate D2E/DX2                !
 ! D128  D(43,40,44,46)         -0.0012         estimate D2E/DX2                !
 ! D129  D(38,41,44,40)         -0.0006         estimate D2E/DX2                !
 ! D130  D(38,41,44,46)        179.9998         estimate D2E/DX2                !
 ! D131  D(45,41,44,40)        179.9959         estimate D2E/DX2                !
 ! D132  D(45,41,44,46)         -0.0037         estimate D2E/DX2                !
 --------------------------------------------------------------------------------
 Trust Radius=3.00D-01 FncErr=1.00D-07 GrdErr=1.00D-06
 Number of steps in this run=    276 maximum allowed number of steps=    276.
 GradGradGradGradGradGradGradGradGradGradGradGradGradGradGradGradGradGrad

                          Input orientation:                          
 ---------------------------------------------------------------------
 Center     Atomic      Atomic             Coordinates (Angstroms)
 Number     Number       Type             X           Y           Z
 ---------------------------------------------------------------------
      1          7           0        1.763060   -1.182831    0.000098
      2          6           0        1.809699    0.249986   -0.000043
      3          6           0        0.470186   -1.667167    0.000045
      4          6           0       -0.391086   -0.606739   -0.000044
      5          6           0        0.391086    0.606739    0.000000
      6          6           0       -0.470186    1.667167    0.000037
      7          6           0       -1.809699   -0.249986   -0.000147
      8          7           0       -1.763060    1.182831   -0.000007
      9          8           0        2.843142    0.898856   -0.000034
     10          8           0       -2.843143   -0.898856    0.000017
     11          1           0       -2.603372    1.742849    0.000387
     12          1           0        2.603373   -1.742849   -0.000143
     13          6           0       -0.188929    3.181266    0.000132
     14          6           0       -1.235275    4.078190    0.000155
     15          6           0        1.151064    3.645950    0.000196
     16          6           0       -0.994775    5.480199    0.000218
     17          1           0       -2.262914    3.723462    0.000123
     18          6           0        1.417364    4.998161    0.000290
     19          1           0        1.967977    2.930185    0.000113
     20          6           0        0.360456    5.950157    0.000288
     21          6           0       -2.051717    6.432115    0.000220
     22          1           0        2.443911    5.356052    0.000348
     23          6           0        0.601031    7.352125    0.000357
     24          6           0       -1.785333    7.784343    0.000311
     25          1           0       -3.078248    6.074220    0.000165
     26          1           0        1.628660    7.706839    0.000393
     27          6           0       -0.445391    8.249011    0.000375
     28          1           0       -2.602178    8.500198    0.000393
     29          1           0       -0.247132    9.316914    0.000443
     30          6           0        0.188931   -3.181266    0.000088
     31          6           0       -1.109720   -3.642588    0.000033
     32          6           0        1.272653   -4.096175    0.000184
     33          6           0       -1.388759   -5.037439    0.000096
     34          1           0       -1.941414   -2.942475   -0.000058
     35          6           0        1.035577   -5.453814    0.000214
     36          1           0        2.292119   -3.721531    0.000290
     37          6           0       -0.292708   -5.962741    0.000188
     38          6           0       -2.717048   -5.546279    0.000066
     39          1           0        1.865116   -6.156488    0.000279
     40          6           0       -0.571663   -7.357580    0.000244
     41          6           0       -2.954052   -6.903964    0.000099
     42          1           0       -3.546570   -4.843607   -0.000002
     43          1           0        0.260026   -8.057677    0.000332
     44          6           0       -1.870372   -7.818840    0.000195
     45          1           0       -3.973486   -7.278716   -0.000006
     46          1           0       -2.068848   -8.886702    0.000224
 ---------------------------------------------------------------------
                    Distance matrix (angstroms):
                    1          2          3          4          5
     1  N    0.000000
     2  C    1.433576   0.000000
     3  C    1.380617   2.338754   0.000000
     4  C    2.229849   2.361659   1.366125   0.000000
     5  C    2.254966   1.462783   2.275281   1.443718   0.000000
     6  C    3.620756   2.684451   3.464402   2.275281   1.366125
     7  C    3.692534   3.653767   2.684451   1.462783   2.361659
     8  N    4.246160   3.692534   3.620756   2.254966   2.229849
     9  O    2.345207   1.220261   3.495053   3.567499   2.469395
    10  O    4.614948   4.792575   3.401243   2.469396   3.567500
    11  H    5.255981   4.658738   4.590748   3.227193   3.202737
    12  H    1.009825   2.145066   2.134529   3.202738   3.227193
    13  C    4.780753   3.547804   4.893029   3.793395   2.639054
    14  C    6.055440   4.891525   5.993140   4.760380   3.833539
    15  C    4.867408   3.459244   5.356566   4.523670   3.132789
    16  C    7.211215   5.934661   7.295955   6.116801   5.066678
    17  H    6.346667   5.352683   6.043899   4.717455   4.093614
    18  C    6.190651   4.764356   6.732291   5.889430   4.509748
    19  H    4.118117   2.684868   4.835186   4.251471   2.808022
    20  C    7.269581   5.881518   7.618114   6.599825   5.343505
    21  C    8.517038   7.288982   8.482828   7.232093   6.316827
    22  H    6.574234   5.145302   7.295286   6.602430   5.173980
    23  C    8.613697   7.204253   9.020241   8.020462   6.748652
    24  C    9.643718   8.348101   9.716913   8.506126   7.500320
    25  H    8.723706   7.603534   8.515894   7.201115   6.475309
    26  H    8.890685   7.459050   9.445318   8.555404   7.207149
    27  C    9.686945   8.310826   9.958357   8.855917   7.687914
    28  H   10.621504   9.355782  10.621428   9.371512   8.441938
    29  H   10.690440   9.297297  11.007478   9.924697   8.733526
    30  C    2.543939   3.794783   1.540000   2.639054   3.793395
    31  C    3.781967   4.865711   2.529505   3.119746   4.506573
    32  C    2.954331   4.379216   2.558130   3.865771   4.784826
    33  C    4.979153   6.179563   3.848949   4.541635   5.918158
    34  H    4.101155   4.925713   2.728044   2.803423   4.247055
    35  C    4.332497   5.756092   3.828624   5.052673   6.094725
    36  H    2.593242   4.000710   2.745879   4.111146   4.727351
    37  C    5.203242   6.558818   4.362793   5.356906   6.604971
    38  C    6.253883   7.354463   5.020555   5.459776   6.893485
    39  H    4.974704   6.406714   4.701046   5.990840   6.921995
    40  C    6.601398   7.971571   5.785002   6.753256   8.022298
    41  C    7.415019   8.594901   6.256952   6.798812   8.221959
    42  H    6.449299   7.391503   5.120947   5.282815   6.723943
    43  H    7.037231   8.450962   6.393965   7.479333   8.665407
    44  C    7.565609   8.868420   6.581891   7.362247   8.723793
    45  H    8.370650   9.493502   7.157912   7.572904   9.012763
    46  H    8.604252   9.925835   7.652998   8.448235   9.806972
                    6          7          8          9         10
     6  C    0.000000
     7  C    2.338754   0.000000
     8  N    1.380617   1.433576   0.000000
     9  O    3.401242   4.792574   4.614947   0.000000
    10  O    3.495053   1.220262   2.345208   5.963691   0.000000
    11  H    2.134528   2.145066   1.009824   5.511519   2.652564
    12  H    4.590749   4.658739   5.255981   2.652564   5.511521
    13  C    1.540000   3.794784   2.543940   3.795109   4.867468
    14  C    2.529505   4.366127   2.943070   5.171233   5.230318
    15  C    2.558130   4.893305   3.815635   3.226399   6.050533
    16  C    3.848949   5.787843   4.365505   5.976480   6.641446
    17  H    2.728044   3.999212   2.589336   5.835255   4.658594
    18  C    3.828624   6.160924   4.967075   4.340178   7.275076
    19  H    2.745879   4.938048   4.119937   2.211834   6.148856
    20  C    4.362793   6.568968   5.218881   5.628443   7.561218
    21  C    5.020555   6.686483   5.257215   7.387598   7.373567
    22  H    4.701046   7.037106   5.925739   4.475040   8.190044
    23  C    5.785002   7.975193   6.606747   6.831672   8.940974
    24  C    6.256952   8.034366   6.601549   8.296548   8.747394
    25  H    5.120947   6.450178   5.065116   7.864302   6.977038
    26  H    6.393965   8.667951   7.352988   6.915460   9.698196
    27  C    6.581891   8.607804   7.187987   8.052281   9.456886
    28  H    7.157912   8.785997   7.365323   9.350503   9.402142
    29  H    7.652998   9.693668   8.274137   8.967357  10.540457
    30  C    4.893029   3.547805   4.780754   4.867467   3.795111
    31  C    5.348131   3.464061   4.869448   6.020784   3.245431
    32  C    6.021096   4.928901   6.089619   5.236102   5.211778
    33  C    6.767238   4.805923   6.231521   7.290307   4.386696
    34  H    4.838730   2.695709   4.129160   6.135780   2.233718
    35  C    7.278440   5.930887   7.202599   6.604825   5.982651
    36  H    6.055444   5.373689   6.363745   4.653129   5.859898
    37  C    7.631972   5.910739   7.295282   7.544208   5.669890
    38  C    7.555276   5.373454   6.796397   8.512079   4.649133
    39  H    8.164755   6.956366   8.187140   7.122810   7.057648
    40  C    9.025317   7.214612   8.623111   8.934743   6.846513
    41  C    8.923782   6.751664   8.174027   9.720672   6.006132
    42  H    7.200994   4.911016   6.284812   8.590943   4.006978
    43  H    9.752220   8.077363   9.459380   9.321586   7.802460
    44  C    9.588787   7.569097   9.002310   9.910370   6.988022
    45  H    9.607390   7.354252   8.745500  10.646084   6.479220
    46  H   10.674262   8.640603  10.074175  10.949192   8.025286
                   11         12         13         14         15
    11  H    0.000000
    12  H    6.265803   0.000000
    13  C    2.810440   5.660729   0.000000
    14  C    2.706567   6.972784   1.378156   0.000000
    15  C    4.209225   5.581071   1.418278   2.425169   0.000000
    16  C    4.068829   8.069640   2.436079   1.422488   2.822958
    17  H    2.009662   7.318559   2.143686   1.087139   3.414857
    18  C    5.173333   6.844547   2.425136   2.807640   1.378184
    19  H    4.723028   4.716034   2.171471   3.402755   1.086125
    20  C    5.146428   8.013302   2.822868   2.459801   2.436068
    21  C    4.721604   9.407439   3.746732   2.491494   4.245059
    22  H    6.207278   7.100692   3.414900   3.894784   2.143806
    23  C    6.460044   9.312783   4.245009   3.753754   3.746768
    24  C    6.096625  10.489429   4.872045   3.746750   5.074320
    25  H    4.357325   9.663715   4.088685   2.716741   4.876840
    26  H    7.312952   9.499824   4.876929   4.622685   4.088877
    27  C    6.854708  10.446637   5.074231   4.244958   4.872047
    28  H    6.757349  11.489899   5.840789   4.628453   6.136004
    29  H    7.932107  11.421197   6.135924   5.331103   5.840786
    30  C    5.660730   2.810440   6.373742   7.397842   6.894677
    31  C    5.588732   4.170860   6.885698   7.721799   7.631116
    32  C    7.008407   2.703508   7.422760   8.550435   7.743079
    33  C    6.888221   5.176045   8.305823   9.116921   9.047206
    34  H    4.731855   4.700445   6.369568   7.056087   7.278101
    35  C    8.064361   4.028554   8.721469   9.798769   9.100497
    36  H    7.336572   2.003014   7.335135   8.560267   7.455319
    37  C    8.044581   5.118083   9.144596  10.085075   9.716554
    38  C    7.290014   6.540104   9.086332   9.737867   9.972931
    39  H    9.075622   4.474957   9.561002  10.693973   9.828411
    40  C    9.324465   6.450276  10.545793  11.455008  11.137570
    41  C    8.653921   7.584331  10.457426  11.115840  11.320453
    42  H    6.653647   6.887416   8.698985   9.216319   9.702594
    43  H   10.210258   6.735601  11.247906  12.227640  11.737497
    44  C    9.589743   7.545333  11.127873  11.913969  11.856242
    45  H    9.125012   8.596563  11.123582  11.682342  12.066869
    46  H   10.642982   8.536058  12.213515  12.991661  12.939675
                   16         17         18         19         20
    16  C    0.000000
    17  H    2.166633   0.000000
    18  C    2.459832   3.894778   0.000000
    19  H    3.909024   4.304617   2.140023   0.000000
    20  C    1.434403   3.440965   1.422445   3.421162   0.000000
    21  C    1.422417   2.716874   3.753765   5.331178   2.459851
    22  H    3.440926   4.981922   1.087145   2.472114   2.166505
    23  C    2.459817   4.622701   2.491495   4.628401   1.422459
    24  C    2.435992   4.088867   4.245006   6.135974   2.822880
    25  H    2.166500   2.488138   4.622600   5.945531   3.440942
    26  H    3.440978   5.568808   2.716907   4.788691   2.166627
    27  C    2.822790   4.876882   3.746717   5.840741   2.436005
    28  H    3.421131   4.788769   5.331133   7.204954   3.908953
    29  H    3.908881   5.945593   4.628410   6.759957   3.421143
    30  C    8.741976   7.327129   8.271159   6.365126   9.133033
    31  C    9.123511   7.455773   9.002705   7.257656   9.704750
    32  C    9.841147   8.581780   9.095486   7.060680  10.087659
    33  C   10.525015   8.804404  10.420537   8.645849  11.125961
    34  H    8.475705   6.673686   8.621780   7.054890   9.185723
    35  C   11.120925   9.752048  10.458945   8.435686  11.423937
    36  H    9.771157   8.727901   8.763460   6.659609   9.862701
    37  C   11.464458   9.884546  11.093499   9.175774  11.930791
    38  C   11.160173   9.280859  11.326013   9.685035  11.901221
    39  H   11.982966  10.707663  11.163632   9.087255  12.199789
    40  C   12.844750  11.209363  12.514813  10.596597  13.340341
    41  C   12.538193  10.649877  12.679505  10.997129  13.274577
    42  H   10.634502   8.662705  11.022751   9.531111  11.479120
    43  H   13.595904  12.048256  13.107033  11.119811  14.008194
    44  C   13.327832  11.548975  13.231958  11.413783  13.948543
    45  H   13.102009  11.134361  13.408317  11.811970  13.920709
    46  H   14.406994  12.611658  14.315833  12.487384  15.034424
                   21         22         23         24         25
    21  C    0.000000
    22  H    4.622617   0.000000
    23  C    2.807755   2.716710   0.000000
    24  C    1.378216   4.876792   2.425189   0.000000
    25  H    1.087131   5.568663   3.894885   2.143864   0.000000
    26  H    3.894880   2.488138   1.087126   3.414872   4.982010
    27  C    2.425158   4.088677   1.378189   1.418224   3.414916
    28  H    2.140087   5.945474   3.402737   1.086133   2.472249
    29  H    3.402733   4.788542   2.140041   2.171367   4.304681
    30  C    9.871049   8.830104  10.541449  11.141916   9.815216
    31  C   10.118647   9.674907  11.127011  11.446886   9.914205
    32  C   11.040667   9.524518  11.467983  12.267761  11.061974
    33  C   11.488698  11.077636  12.548328  12.827913  11.239365
    34  H    9.375239   9.385980  10.603905  10.727953   9.088079
    35  C   12.280338  10.901221  12.813310  13.535373  12.240062
    36  H   11.043797   9.078853  11.202037  12.206996  11.171284
    37  C   12.519049  11.644921  13.344828  13.827879  12.355066
    38  C   11.996858  12.062186  13.318351  13.363142  11.626111
    39  H   13.183874  11.527081  13.567628  14.410848  13.191932
    40  C   13.868895  13.066374  14.756376  15.190484  13.663682
    41  C   13.366571  13.395746  14.692675  14.734730  12.978778
    42  H   11.374379  11.828733  12.881711  12.750179  10.927867
    43  H   14.673045  13.590345  15.413574  15.973512  14.520833
    44  C   14.252109  13.863290  15.370946  15.603414  13.945468
    45  H   13.844858  14.171110  15.329309  15.221162  13.382913
    46  H   15.318827  14.940584  16.456845  16.673456  14.994935
                   26         27         28         29         30
    26  H    0.000000
    27  C    2.143744   0.000000
    28  H    4.304579   2.171364   0.000000
    29  H    2.472031   1.086151   2.492642   0.000000
    30  C   10.982879  11.447864  12.010283  12.505785   0.000000
    31  C   11.675111  11.910141  12.234161  12.988177   1.378156
    32  C   11.808381  12.464160  13.178882  13.498914   1.418278
    33  C   13.096619  13.319898  13.591909  14.399679   2.436079
    34  H   11.231799  11.291034  11.461736  12.375913   2.143686
    35  C   13.174009  13.782623  14.420392  14.826320   2.425136
    36  H   11.447612  12.279570  13.165288  13.283405   2.171471
    37  C   13.803951  14.212573  14.646169  15.279723   2.822868
    38  C   13.947412  13.981075  14.046947  15.067017   3.746732
    39  H   13.865343  14.589615  15.322375  15.616907   3.414900
    40  C   15.224261  15.607102  15.987249  16.677652   4.245009
    41  C   15.312635  15.359233  15.408181  16.445191   4.872045
    42  H   13.575592  13.454886  13.377183  14.539830   4.088685
    43  H   15.823815  16.321939  16.803435  17.381991   4.876929
    44  C   15.915084  16.130914  16.335438  17.212465   5.074231
    45  H   15.998465  15.923497  15.838391  17.008840   5.840789
    46  H   17.000505  17.212445  17.395078  18.294543   6.135924
                   31         32         33         34         35
    31  C    0.000000
    32  C    2.425169   0.000000
    33  C    1.422488   2.822958   0.000000
    34  H    1.087139   3.414857   2.166633   0.000000
    35  C    2.807640   1.378184   2.459832   3.894778   0.000000
    36  H    3.402755   1.086125   3.909024   4.304617   2.140023
    37  C    2.459801   2.436068   1.434403   3.440965   1.422445
    38  C    2.491494   4.245059   1.422417   2.716874   3.753765
    39  H    3.894784   2.143806   3.440926   4.981922   1.087145
    40  C    3.753754   3.746768   2.459817   4.622701   2.491495
    41  C    3.746750   5.074320   2.435992   4.088867   4.245006
    42  H    2.716741   4.876840   2.166500   2.488138   4.622600
    43  H    4.622685   4.088877   3.440978   5.568808   2.716907
    44  C    4.244958   4.872047   2.822790   4.876882   3.746717
    45  H    4.628453   6.136004   3.421131   4.788769   5.331133
    46  H    5.331103   5.840786   3.908881   5.945593   4.628410
                   36         37         38         39         40
    36  H    0.000000
    37  C    3.421162   0.000000
    38  C    5.331178   2.459851   0.000000
    39  H    2.472114   2.166505   4.622617   0.000000
    40  C    4.628401   1.422459   2.807755   2.716710   0.000000
    41  C    6.135974   2.822880   1.378216   4.876792   2.425189
    42  H    5.945531   3.440942   1.087131   5.568663   3.894885
    43  H    4.788691   2.166627   3.894880   2.488138   1.087126
    44  C    5.840741   2.436005   2.425158   4.088677   1.378189
    45  H    7.204954   3.908953   2.140087   5.945474   3.402737
    46  H    6.759957   3.421143   3.402733   4.788542   2.140041
                   41         42         43         44         45
    41  C    0.000000
    42  H    2.143864   0.000000
    43  H    3.414872   4.982010   0.000000
    44  C    1.418224   3.414916   2.143744   0.000000
    45  H    1.086133   2.472249   4.304579   2.171364   0.000000
    46  H    2.171367   4.304681   2.472031   1.086151   2.492642
                   46
    46  H    0.000000
 Stoichiometry    C26H16N2O2
 Framework group  C1[X(C26H16N2O2)]
 Deg. of freedom   132
 Full point group                 C1      NOp   1
 Largest Abelian subgroup         C1      NOp   1
 Largest concise Abelian subgroup C1      NOp   1
                         Standard orientation:                         
 ---------------------------------------------------------------------
 Center     Atomic      Atomic             Coordinates (Angstroms)
 Number     Number       Type             X           Y           Z
 ---------------------------------------------------------------------
      1          7           0        1.139289    2.216381   -0.000034
      2          6           0       -0.293985    2.186962   -0.000175
      3          6           0        1.691513    0.951014   -0.000087
      4          6           0        0.678257    0.034712   -0.000176
      5          6           0       -0.574997    0.751425   -0.000132
      6          6           0       -1.588254   -0.164876   -0.000095
      7          6           0        0.397244   -1.400825   -0.000279
      8          7           0       -1.036030   -1.430243   -0.000139
      9          8           0       -0.996752    3.184537   -0.000166
     10          8           0        1.100011   -2.398401   -0.000115
     11          1           0       -1.550692   -2.299074    0.000255
     12          1           0        1.653952    3.085212   -0.000275
     13          6           0       -3.115138    0.035682    0.000000
     14          6           0       -3.955305   -1.056761    0.000023
     15          6           0       -3.650237    1.349144    0.000064
     16          6           0       -5.368097   -0.890957    0.000086
     17          1           0       -3.546575   -2.064140   -0.000008
     18          6           0       -5.014668    1.543353    0.000159
     19          1           0       -2.978806    2.202869   -0.000018
     20          6           0       -5.909270    0.437442    0.000157
     21          6           0       -6.262617   -1.996898    0.000088
     22          1           0       -5.426501    2.549473    0.000216
     23          6           0       -7.322024    0.603322    0.000226
     24          6           0       -7.627069   -1.802606    0.000180
     25          1           0       -5.850781   -3.003003    0.000034
     26          1           0       -7.730740    1.610692    0.000261
     27          6           0       -8.162149   -0.489195    0.000243
     28          1           0       -8.298594   -2.656268    0.000261
     29          1           0       -9.239064   -0.347853    0.000311
     30          6           0        3.218398    0.750457   -0.000044
     31          6           0        3.747947   -0.521900   -0.000098
     32          6           0        4.074542    1.881178    0.000053
     33          6           0        5.155634   -0.726567   -0.000035
     34          1           0        3.092930   -1.389554   -0.000189
     35          6           0        5.442845    1.716440    0.000083
     36          1           0        3.646357    2.879339    0.000159
     37          6           0        6.021503    0.417016    0.000056
     38          6           0        5.734206   -2.026000   -0.000066
     39          1           0        6.100534    2.582078    0.000148
     40          6           0        7.429174    0.212431    0.000113
     41          6           0        7.102550   -2.190663   -0.000033
     42          1           0        5.076518   -2.891622   -0.000134
     43          1           0        8.084175    1.080080    0.000200
     44          6           0        7.958663   -1.059986    0.000064
     45          1           0        7.530842   -3.188787   -0.000138
     46          1           0        9.035549   -1.201547    0.000093
 ---------------------------------------------------------------------
 Rotational constants (GHZ):      0.5461594      0.0567199      0.0513836
 Standard basis: 6-31+G(d,p) (6D, 7F)
 There are   650 symmetry adapted basis functions of A   symmetry.
 Integral buffers will be    262144 words long.
 Raffenetti 2 integral format.
 Two-electron integral symmetry is turned on.
   650 basis functions,  1072 primitive gaussians,   650 cartesian basis functions
   101 alpha electrons      101 beta electrons
       nuclear repulsion energy      2456.5292805841 Hartrees.
 NAtoms=   46 NActive=   46 NUniq=   46 SFac= 1.00D+00 NAtFMM=   50 NAOKFM=F Big=F
 One-electron integrals computed using PRISM.
 NBasis=   650 RedAO= T  NBF=   650
 NBsUse=   638 1.00D-06 NBFU=   638
 Harris functional with IExCor=  402 diagonalized for initial guess.
 ExpMin= 4.38D-02 ExpMax= 5.48D+03 ExpMxC= 8.25D+02 IAcc=2 IRadAn=         0 AccDes= 0.00D+00
 HarFok:  IExCor=  402 AccDes= 0.00D+00 IRadAn=         0 IDoV= 1
 ScaDFX=  1.000000  1.000000  1.000000  1.000000
 FoFCou: FMM=F IPFlag=           0 FMFlag=      100000 FMFlg1=           0
         NFxFlg=           0 DoJE=T BraDBF=F KetDBF=T FulRan=T
         Omega=  0.000000  0.000000  1.000000  0.000000  0.000000 ICntrl=     500 IOpCl=  0
         NMat0=    1 NMatS0=    1 NMatT0=    0 NMatD0=    1 NMtDS0=    0 NMtDT0=    0
         I1Cent=           4 NGrid=           0.
 Petite list used in FoFCou.
 Initial guess orbital symmetries:
       Occupied  (A) (A) (A) (A) (A) (A) (A) (A) (A) (A) (A) (A)
                 (A) (A) (A) (A) (A) (A) (A) (A) (A) (A) (A) (A)
                 (A) (A) (A) (A) (A) (A) (A) (A) (A) (A) (A) (A)
                 (A) (A) (A) (A) (A) (A) (A) (A) (A) (A) (A) (A)
                 (A) (A) (A) (A) (A) (A) (A) (A) (A) (A) (A) (A)
                 (A) (A) (A) (A) (A) (A) (A) (A) (A) (A) (A) (A)
                 (A) (A) (A) (A) (A) (A) (A) (A) (A) (A) (A) (A)
                 (A) (A) (A) (A) (A) (A) (A) (A) (A) (A) (A) (A)
                 (A) (A) (A) (A) (A)
       Virtual   (A) (A) (A) (A) (A) (A) (A) (A) (A) (A) (A) (A)
                 (A) (A) (A) (A) (A) (A) (A) (A) (A) (A) (A) (A)
                 (A) (A) (A) (A) (A) (A) (A) (A) (A) (A) (A) (A)
                 (A) (A) (A) (A) (A) (A) (A) (A) (A) (A) (A) (A)
                 (A) (A) (A) (A) (A) (A) (A) (A) (A) (A) (A) (A)
                 (A) (A) (A) (A) (A) (A) (A) (A) (A) (A) (A) (A)
                 (A) (A) (A) (A) (A) (A) (A) (A) (A) (A) (A) (A)
                 (A) (A) (A) (A) (A) (A) (A) (A) (A) (A) (A) (A)
                 (A) (A) (A) (A) (A) (A) (A) (A) (A) (A) (A) (A)
                 (A) (A) (A) (A) (A) (A) (A) (A) (A) (A) (A) (A)
                 (A) (A) (A) (A) (A) (A) (A) (A) (A) (A) (A) (A)
                 (A) (A) (A) (A) (A) (A) (A) (A) (A) (A) (A) (A)
                 (A) (A) (A) (A) (A) (A) (A) (A) (A) (A) (A) (A)
                 (A) (A) (A) (A) (A) (A) (A) (A) (A) (A) (A) (A)
                 (A) (A) (A) (A) (A) (A) (A) (A) (A) (A) (A) (A)
                 (A) (A) (A) (A) (A) (A) (A) (A) (A) (A) (A) (A)
                 (A) (A) (A) (A) (A) (A) (A) (A) (A) (A) (A) (A)
                 (A) (A) (A) (A) (A) (A) (A) (A) (A) (A) (A) (A)
                 (A) (A) (A) (A) (A) (A) (A) (A) (A) (A) (A) (A)
                 (A) (A) (A) (A) (A) (A) (A) (A) (A) (A) (A) (A)
                 (A) (A) (A) (A) (A) (A) (A) (A) (A) (A) (A) (A)
                 (A) (A) (A) (A) (A) (A) (A) (A) (A) (A) (A) (A)
                 (A) (A) (A) (A) (A) (A) (A) (A) (A) (A) (A) (A)
                 (A) (A) (A) (A) (A) (A) (A) (A) (A) (A) (A) (A)
                 (A) (A) (A) (A) (A) (A) (A) (A) (A) (A) (A) (A)
                 (A) (A) (A) (A) (A) (A) (A) (A) (A) (A) (A) (A)
                 (A) (A) (A) (A) (A) (A) (A) (A) (A) (A) (A) (A)
                 (A) (A) (A) (A) (A) (A) (A) (A) (A) (A) (A) (A)
                 (A) (A) (A) (A) (A) (A) (A) (A) (A) (A) (A) (A)
                 (A) (A) (A) (A) (A) (A) (A) (A) (A) (A) (A) (A)
                 (A) (A) (A) (A) (A) (A) (A) (A) (A) (A) (A) (A)
                 (A) (A) (A) (A) (A) (A) (A) (A) (A) (A) (A) (A)
                 (A) (A) (A) (A) (A) (A) (A) (A) (A) (A) (A) (A)
                 (A) (A) (A) (A) (A) (A) (A) (A) (A) (A) (A) (A)
                 (A) (A) (A) (A) (A) (A) (A) (A) (A) (A) (A) (A)
                 (A) (A) (A) (A) (A) (A) (A) (A) (A) (A) (A) (A)
                 (A) (A) (A) (A) (A) (A) (A) (A) (A) (A) (A) (A)
                 (A) (A) (A) (A) (A) (A) (A) (A) (A) (A) (A) (A)
                 (A) (A) (A) (A) (A) (A) (A) (A) (A) (A) (A) (A)
                 (A) (A) (A) (A) (A) (A) (A) (A) (A) (A) (A) (A)
                 (A) (A) (A) (A) (A) (A) (A) (A) (A) (A) (A) (A)
                 (A) (A) (A) (A) (A) (A) (A) (A) (A) (A) (A) (A)
                 (A) (A) (A) (A) (A) (A) (A) (A) (A) (A) (A) (A)
                 (A) (A) (A) (A) (A) (A) (A) (A) (A) (A) (A) (A)
                 (A) (A) (A) (A) (A) (A) (A) (A) (A)
 The electronic state of the initial guess is 1-A.
 Requested convergence on RMS density matrix=1.00D-08 within 128 cycles.
 Requested convergence on MAX density matrix=1.00D-06.
 Requested convergence on             energy=1.00D-06.
 No special actions if energy rises.
 SCF Done:  E(RB3LYP) =  -1260.47016692     A.U. after   16 cycles
             Convg  =    0.7204D-08             -V/T =  2.0097

 **********************************************************************

            Population analysis using the SCF density.

 **********************************************************************

 Orbital symmetries:
       Occupied  (A) (A) (A) (A) (A) (A) (A) (A) (A) (A) (A) (A)
                 (A) (A) (A) (A) (A) (A) (A) (A) (A) (A) (A) (A)
                 (A) (A) (A) (A) (A) (A) (A) (A) (A) (A) (A) (A)
                 (A) (A) (A) (A) (A) (A) (A) (A) (A) (A) (A) (A)
                 (A) (A) (A) (A) (A) (A) (A) (A) (A) (A) (A) (A)
                 (A) (A) (A) (A) (A) (A) (A) (A) (A) (A) (A) (A)
                 (A) (A) (A) (A) (A) (A) (A) (A) (A) (A) (A) (A)
                 (A) (A) (A) (A) (A) (A) (A) (A) (A) (A) (A) (A)
                 (A) (A) (A) (A) (A)
       Virtual   (A) (A) (A) (A) (A) (A) (A) (A) (A) (A) (A) (A)
                 (A) (A) (A) (A) (A) (A) (A) (A) (A) (A) (A) (A)
                 (A) (A) (A) (A) (A) (A) (A) (A) (A) (A) (A) (A)
                 (A) (A) (A) (A) (A) (A) (A) (A) (A) (A) (A) (A)
                 (A) (A) (A) (A) (A) (A) (A) (A) (A) (A) (A) (A)
                 (A) (A) (A) (A) (A) (A) (A) (A) (A) (A) (A) (A)
                 (A) (A) (A) (A) (A) (A) (A) (A) (A) (A) (A) (A)
                 (A) (A) (A) (A) (A) (A) (A) (A) (A) (A) (A) (A)
                 (A) (A) (A) (A) (A) (A) (A) (A) (A) (A) (A) (A)
                 (A) (A) (A) (A) (A) (A) (A) (A) (A) (A) (A) (A)
                 (A) (A) (A) (A) (A) (A) (A) (A) (A) (A) (A) (A)
                 (A) (A) (A) (A) (A) (A) (A) (A) (A) (A) (A) (A)
                 (A) (A) (A) (A) (A) (A) (A) (A) (A) (A) (A) (A)
                 (A) (A) (A) (A) (A) (A) (A) (A) (A) (A) (A) (A)
                 (A) (A) (A) (A) (A) (A) (A) (A) (A) (A) (A) (A)
                 (A) (A) (A) (A) (A) (A) (A) (A) (A) (A) (A) (A)
                 (A) (A) (A) (A) (A) (A) (A) (A) (A) (A) (A) (A)
                 (A) (A) (A) (A) (A) (A) (A) (A) (A) (A) (A) (A)
                 (A) (A) (A) (A) (A) (A) (A) (A) (A) (A) (A) (A)
                 (A) (A) (A) (A) (A) (A) (A) (A) (A) (A) (A) (A)
                 (A) (A) (A) (A) (A) (A) (A) (A) (A) (A) (A) (A)
                 (A) (A) (A) (A) (A) (A) (A) (A) (A) (A) (A) (A)
                 (A) (A) (A) (A) (A) (A) (A) (A) (A) (A) (A) (A)
                 (A) (A) (A) (A) (A) (A) (A) (A) (A) (A) (A) (A)
                 (A) (A) (A) (A) (A) (A) (A) (A) (A) (A) (A) (A)
                 (A) (A) (A) (A) (A) (A) (A) (A) (A) (A) (A) (A)
                 (A) (A) (A) (A) (A) (A) (A) (A) (A) (A) (A) (A)
                 (A) (A) (A) (A) (A) (A) (A) (A) (A) (A) (A) (A)
                 (A) (A) (A) (A) (A) (A) (A) (A) (A) (A) (A) (A)
                 (A) (A) (A) (A) (A) (A) (A) (A) (A) (A) (A) (A)
                 (A) (A) (A) (A) (A) (A) (A) (A) (A) (A) (A) (A)
                 (A) (A) (A) (A) (A) (A) (A) (A) (A) (A) (A) (A)
                 (A) (A) (A) (A) (A) (A) (A) (A) (A) (A) (A) (A)
                 (A) (A) (A) (A) (A) (A) (A) (A) (A) (A) (A) (A)
                 (A) (A) (A) (A) (A) (A) (A) (A) (A) (A) (A) (A)
                 (A) (A) (A) (A) (A) (A) (A) (A) (A) (A) (A) (A)
                 (A) (A) (A) (A) (A) (A) (A) (A) (A) (A) (A) (A)
                 (A) (A) (A) (A) (A) (A) (A) (A) (A) (A) (A) (A)
                 (A) (A) (A) (A) (A) (A) (A) (A) (A) (A) (A) (A)
                 (A) (A) (A) (A) (A) (A) (A) (A) (A) (A) (A) (A)
                 (A) (A) (A) (A) (A) (A) (A) (A) (A) (A) (A) (A)
                 (A) (A) (A) (A) (A) (A) (A) (A) (A) (A) (A) (A)
                 (A) (A) (A) (A) (A) (A) (A) (A) (A) (A) (A) (A)
                 (A) (A) (A) (A) (A) (A) (A) (A) (A) (A) (A) (A)
                 (A) (A) (A) (A) (A) (A) (A) (A) (A)
 The electronic state is 1-A.
 Alpha  occ. eigenvalues --  -19.14586 -19.14539 -14.39660 -14.39572 -10.31456
 Alpha  occ. eigenvalues --  -10.31372 -10.27741 -10.27654 -10.23188 -10.23151
 Alpha  occ. eigenvalues --  -10.22006 -10.21855 -10.21838 -10.21760 -10.21746
 Alpha  occ. eigenvalues --  -10.21690 -10.21383 -10.21014 -10.20937 -10.20934
 Alpha  occ. eigenvalues --  -10.20883 -10.20879 -10.20825 -10.20801 -10.20748
 Alpha  occ. eigenvalues --  -10.20747 -10.20676 -10.20336 -10.20278 -10.20156
 Alpha  occ. eigenvalues --   -1.06152  -1.05727  -0.98820  -0.97373  -0.89200
 Alpha  occ. eigenvalues --   -0.89186  -0.84328  -0.84238  -0.82098  -0.79265
 Alpha  occ. eigenvalues --   -0.79204  -0.77509  -0.76812  -0.74475  -0.73986
 Alpha  occ. eigenvalues --   -0.72565  -0.69281  -0.68899  -0.64538  -0.64049
 Alpha  occ. eigenvalues --   -0.62921  -0.62212  -0.61437  -0.61221  -0.58391
 Alpha  occ. eigenvalues --   -0.55897  -0.54371  -0.53323  -0.52835  -0.52805
 Alpha  occ. eigenvalues --   -0.51696  -0.51298  -0.49269  -0.48216  -0.47475
 Alpha  occ. eigenvalues --   -0.47359  -0.46622  -0.46236  -0.45911  -0.45108
 Alpha  occ. eigenvalues --   -0.44558  -0.43691  -0.43525  -0.43407  -0.43275
 Alpha  occ. eigenvalues --   -0.43078  -0.42355  -0.41599  -0.41018  -0.40802
 Alpha  occ. eigenvalues --   -0.39812  -0.38759  -0.38139  -0.37506  -0.36335
 Alpha  occ. eigenvalues --   -0.35979  -0.35713  -0.34851  -0.34710  -0.33725
 Alpha  occ. eigenvalues --   -0.33457  -0.30271  -0.30222  -0.28985  -0.27573
 Alpha  occ. eigenvalues --   -0.27167  -0.26630  -0.26496  -0.23859  -0.23579
 Alpha  occ. eigenvalues --   -0.20797
 Alpha virt. eigenvalues --   -0.10258  -0.06212  -0.05409  -0.04002  -0.02081
 Alpha virt. eigenvalues --   -0.00902  -0.00677  -0.00536  -0.00033   0.00507
 Alpha virt. eigenvalues --    0.00595   0.00736   0.01387   0.01937   0.02667
 Alpha virt. eigenvalues --    0.02968   0.03425   0.03881   0.04380   0.04600
 Alpha virt. eigenvalues --    0.05074   0.05241   0.05256   0.05586   0.05775
 Alpha virt. eigenvalues --    0.06142   0.06299   0.06612   0.06778   0.07012
 Alpha virt. eigenvalues --    0.07621   0.07827   0.08322   0.08578   0.08950
 Alpha virt. eigenvalues --    0.09412   0.09920   0.10130   0.10282   0.10529
 Alpha virt. eigenvalues --    0.11116   0.11279   0.11415   0.11471   0.11953
 Alpha virt. eigenvalues --    0.12214   0.12610   0.12695   0.12823   0.13412
 Alpha virt. eigenvalues --    0.13629   0.13856   0.14174   0.14270   0.14551
 Alpha virt. eigenvalues --    0.15097   0.15372   0.15393   0.15703   0.15719
 Alpha virt. eigenvalues --    0.16111   0.16579   0.16866   0.16941   0.17178
 Alpha virt. eigenvalues --    0.17463   0.17716   0.18267   0.18367   0.18562
 Alpha virt. eigenvalues --    0.18962   0.19179   0.19440   0.19546   0.19616
 Alpha virt. eigenvalues --    0.20197   0.20210   0.20335   0.20629   0.20730
 Alpha virt. eigenvalues --    0.20739   0.20914   0.21245   0.21503   0.21622
 Alpha virt. eigenvalues --    0.21686   0.22033   0.22140   0.22648   0.22938
 Alpha virt. eigenvalues --    0.23094   0.23445   0.23487   0.23849   0.24224
 Alpha virt. eigenvalues --    0.24428   0.24510   0.24762   0.24854   0.25147
 Alpha virt. eigenvalues --    0.25325   0.25672   0.25844   0.26001   0.26086
 Alpha virt. eigenvalues --    0.26557   0.26720   0.26903   0.27104   0.27360
 Alpha virt. eigenvalues --    0.27579   0.27677   0.27931   0.28123   0.28578
 Alpha virt. eigenvalues --    0.29201   0.29426   0.29657   0.29922   0.30220
 Alpha virt. eigenvalues --    0.30511   0.30578   0.31082   0.31339   0.31882
 Alpha virt. eigenvalues --    0.32020   0.32502   0.32980   0.33376   0.33498
 Alpha virt. eigenvalues --    0.33910   0.33917   0.34184   0.34465   0.34679
 Alpha virt. eigenvalues --    0.35079   0.35632   0.35743   0.36647   0.36702
 Alpha virt. eigenvalues --    0.37084   0.38344   0.39352   0.39760   0.39992
 Alpha virt. eigenvalues --    0.40243   0.41180   0.41871   0.42508   0.43116
 Alpha virt. eigenvalues --    0.44057   0.44690   0.45593   0.45730   0.46688
 Alpha virt. eigenvalues --    0.47512   0.49725   0.50150   0.51129   0.51558
 Alpha virt. eigenvalues --    0.52150   0.52607   0.52765   0.53345   0.54990
 Alpha virt. eigenvalues --    0.56640   0.58291   0.60018   0.60555   0.62317
 Alpha virt. eigenvalues --    0.63917   0.64398   0.65001   0.65380   0.65443
 Alpha virt. eigenvalues --    0.66967   0.67736   0.67959   0.68158   0.68583
 Alpha virt. eigenvalues --    0.68735   0.69924   0.70428   0.70741   0.71087
 Alpha virt. eigenvalues --    0.71330   0.71826   0.72050   0.72275   0.72333
 Alpha virt. eigenvalues --    0.72417   0.72580   0.73099   0.73285   0.73521
 Alpha virt. eigenvalues --    0.73717   0.74892   0.74973   0.75389   0.75651
 Alpha virt. eigenvalues --    0.76003   0.76110   0.76377   0.77249   0.77265
 Alpha virt. eigenvalues --    0.78140   0.79189   0.79428   0.79622   0.79729
 Alpha virt. eigenvalues --    0.80147   0.82002   0.82119   0.82229   0.82602
 Alpha virt. eigenvalues --    0.83368   0.84919   0.85739   0.86126   0.86309
 Alpha virt. eigenvalues --    0.87102   0.87962   0.88560   0.89093   0.89488
 Alpha virt. eigenvalues --    0.90548   0.92128   0.92257   0.93169   0.94327
 Alpha virt. eigenvalues --    0.94999   0.95667   0.95771   0.97359   0.98158
 Alpha virt. eigenvalues --    0.98654   0.99145   0.99501   0.99843   1.00623
 Alpha virt. eigenvalues --    1.01892   1.02463   1.04810   1.05075   1.06714
 Alpha virt. eigenvalues --    1.07406   1.07751   1.08560   1.09621   1.10067
 Alpha virt. eigenvalues --    1.10953   1.12236   1.13348   1.14577   1.14695
 Alpha virt. eigenvalues --    1.15549   1.16409   1.17142   1.17713   1.18207
 Alpha virt. eigenvalues --    1.18307   1.19209   1.19990   1.20438   1.20971
 Alpha virt. eigenvalues --    1.21209   1.21615   1.22354   1.22599   1.23363
 Alpha virt. eigenvalues --    1.23451   1.23831   1.24465   1.24972   1.26089
 Alpha virt. eigenvalues --    1.26614   1.27162   1.27750   1.28788   1.29672
 Alpha virt. eigenvalues --    1.30268   1.30891   1.30914   1.31795   1.32456
 Alpha virt. eigenvalues --    1.32588   1.32656   1.33734   1.33769   1.33993
 Alpha virt. eigenvalues --    1.35242   1.35374   1.35461   1.36263   1.36502
 Alpha virt. eigenvalues --    1.36848   1.37036   1.38211   1.38282   1.38845
 Alpha virt. eigenvalues --    1.39298   1.39685   1.39780   1.39906   1.40986
 Alpha virt. eigenvalues --    1.41361   1.42351   1.42646   1.43494   1.44484
 Alpha virt. eigenvalues --    1.44560   1.45353   1.47057   1.49695   1.50644
 Alpha virt. eigenvalues --    1.52685   1.54158   1.55315   1.55608   1.56423
 Alpha virt. eigenvalues --    1.59341   1.59564   1.60966   1.62009   1.65620
 Alpha virt. eigenvalues --    1.71681   1.72353   1.74729   1.75034   1.75807
 Alpha virt. eigenvalues --    1.76432   1.78342   1.78716   1.79591   1.80281
 Alpha virt. eigenvalues --    1.80538   1.80774   1.81001   1.81615   1.81671
 Alpha virt. eigenvalues --    1.81692   1.85075   1.86620   1.87533   1.87846
 Alpha virt. eigenvalues --    1.88095   1.88577   1.89687   1.89911   1.90035
 Alpha virt. eigenvalues --    1.90058   1.90264   1.91133   1.91718   1.92523
 Alpha virt. eigenvalues --    1.92923   1.93405   1.93759   1.94465   1.95040
 Alpha virt. eigenvalues --    1.97506   1.99071   1.99300   1.99426   1.99565
 Alpha virt. eigenvalues --    1.99848   2.00976   2.01990   2.02293   2.02305
 Alpha virt. eigenvalues --    2.02856   2.03158   2.04116   2.04847   2.06764
 Alpha virt. eigenvalues --    2.07445   2.07663   2.09320   2.11670   2.12224
 Alpha virt. eigenvalues --    2.13718   2.13902   2.14391   2.15778   2.15857
 Alpha virt. eigenvalues --    2.17702   2.19904   2.20722   2.21248   2.21468
 Alpha virt. eigenvalues --    2.23579   2.23762   2.26412   2.27468   2.27542
 Alpha virt. eigenvalues --    2.28026   2.28832   2.28988   2.29718   2.32096
 Alpha virt. eigenvalues --    2.34154   2.34766   2.35207   2.36040   2.37311
 Alpha virt. eigenvalues --    2.37443   2.37563   2.37905   2.38598   2.39621
 Alpha virt. eigenvalues --    2.40150   2.40955   2.41021   2.42400   2.43831
 Alpha virt. eigenvalues --    2.43935   2.44590   2.45241   2.47281   2.48245
 Alpha virt. eigenvalues --    2.48460   2.49372   2.50562   2.51669   2.52337
 Alpha virt. eigenvalues --    2.52687   2.54031   2.54358   2.54677   2.55949
 Alpha virt. eigenvalues --    2.56399   2.56901   2.57407   2.58501   2.58840
 Alpha virt. eigenvalues --    2.58910   2.59076   2.59784   2.60645   2.61074
 Alpha virt. eigenvalues --    2.62978   2.63181   2.63329   2.64246   2.64916
 Alpha virt. eigenvalues --    2.65993   2.68911   2.69326   2.69552   2.70697
 Alpha virt. eigenvalues --    2.70799   2.72980   2.72983   2.73361   2.73862
 Alpha virt. eigenvalues --    2.74694   2.77100   2.77987   2.79025   2.79154
 Alpha virt. eigenvalues --    2.80060   2.83051   2.84561   2.86953   2.87656
 Alpha virt. eigenvalues --    2.91231   2.92781   2.94986   2.96903   2.97472
 Alpha virt. eigenvalues --    2.98548   3.01056   3.02465   3.05220   3.05834
 Alpha virt. eigenvalues --    3.06544   3.07817   3.09948   3.12099   3.14360
 Alpha virt. eigenvalues --    3.16341   3.17292   3.17964   3.21856   3.24604
 Alpha virt. eigenvalues --    3.25861   3.26164   3.27708   3.28608   3.29393
 Alpha virt. eigenvalues --    3.29634   3.33446   3.34588   3.36777   3.37607
 Alpha virt. eigenvalues --    3.39895   3.46184   3.48621   3.48943   3.49342
 Alpha virt. eigenvalues --    3.51355   3.56165   3.58379   3.74320   3.75064
 Alpha virt. eigenvalues --    3.86949   3.87080   4.24028   4.25637   4.26472
 Alpha virt. eigenvalues --    4.30375   4.30848   4.32301   4.32673   4.33690
 Alpha virt. eigenvalues --    4.34481   4.34686   4.35512   4.36869   4.39821
 Alpha virt. eigenvalues --    4.41125   4.43004   4.43885   4.46236   4.47502
 Alpha virt. eigenvalues --    4.48962   4.54464   4.54979   4.57929   4.63223
 Alpha virt. eigenvalues --    4.68037   4.73848   4.79402   4.91857   4.92843
 Alpha virt. eigenvalues --    5.04944   5.13677
          Condensed to atoms (all electrons):
              1          2          3          4          5          6
     1  N    7.411071   0.448929  -0.183236  -0.093866  -0.208363  -0.053465
     2  C    0.448929   8.537673  -0.511379  -0.244103  -2.575537  -0.262733
     3  C   -0.183236  -0.511379   8.111632  -0.468706  -0.231618   0.422978
     4  C   -0.093866  -0.244103  -0.468706   8.995790  -0.397268  -0.069117
     5  C   -0.208363  -2.575537  -0.231618  -0.397268  11.066581   0.343061
     6  C   -0.053465  -0.262733   0.422978  -0.069117   0.343061   8.731708
     7  C    0.008590   0.368302  -0.032085  -1.448262  -0.994105  -1.243176
     8  N    0.008715   0.006362  -0.004284  -0.207072  -0.235728  -0.303314
     9  O   -0.086816   0.082243  -0.043278  -0.005599   0.231158   0.035961
    10  O   -0.004635  -0.011645  -0.006283   0.015629   0.066712  -0.012599
    11  H    0.000254   0.002753  -0.002448   0.027338   0.025689  -0.087637
    12  H    0.300067   0.006046  -0.067847   0.063901  -0.019561  -0.008860
    13  C   -0.048642  -0.841528  -0.349275   0.149142   1.158613   0.231014
    14  C    0.003964  -0.085319   0.085317  -0.215728   0.530960  -0.755780
    15  C    0.033803   0.749284  -0.062656   0.223520  -1.455654  -0.412748
    16  C   -0.004647  -0.113541  -0.089342   0.129414  -0.623480   0.087025
    17  H   -0.000087  -0.009730   0.000792   0.001116  -0.023465   0.132062
    18  C    0.014024   0.252439   0.046049   0.068017  -0.231583  -0.647898
    19  H    0.001046   0.041521   0.010448  -0.004230   0.020982  -0.001896
    20  C    0.002936   0.049532   0.002916   0.046746   0.164954  -0.521456
    21  C    0.000021   0.018760  -0.005393  -0.009463  -0.150356  -0.214127
    22  H   -0.000013  -0.003302   0.000084  -0.000238   0.001695  -0.001149
    23  C    0.000264   0.037028  -0.006363   0.024558  -0.149418   0.115199
    24  C    0.000033  -0.001850  -0.000284   0.005327  -0.006636  -0.051059
    25  H    0.000000  -0.000038  -0.000005   0.000154  -0.000491   0.005809
    26  H    0.000000  -0.000046  -0.000001   0.000007  -0.000053   0.000536
    27  C    0.000047   0.000444   0.000356   0.000834   0.010757  -0.096797
    28  H    0.000000   0.000000   0.000000   0.000002  -0.000025   0.000258
    29  H    0.000000   0.000000   0.000000   0.000000   0.000004  -0.000046
    30  C   -0.301001  -0.291512  -0.081851  -0.240642   0.783961  -0.250798
    31  C   -0.128165  -0.542683  -0.722419   0.251872   0.412607   0.228904
    32  C    0.194605   0.376065  -0.627973  -0.102538  -0.946860  -0.067597
    33  C   -0.117371  -0.168746  -0.345398  -0.144044   0.332231   0.082405
    34  H   -0.000690  -0.002748   0.008948   0.037169   0.006801   0.011909
    35  C    0.136884   0.119450   0.534115   0.037049  -0.256210  -0.067653
    36  H   -0.016984   0.005593   0.114029   0.005678  -0.006209   0.001307
    37  C    0.077725   0.084378  -0.635758   0.280735  -0.159245  -0.053755
    38  C   -0.021075  -0.046566  -0.047406  -0.255548   0.090303   0.034853
    39  H    0.000624   0.000107  -0.017781   0.000498   0.000369   0.000026
    40  C   -0.005353   0.014490   0.855605  -0.288973   0.049219  -0.014134
    41  C    0.000367  -0.004813  -0.120117   0.063476  -0.005572   0.007723
    42  H   -0.000001   0.000016   0.000425   0.002427  -0.000340   0.000143
    43  H   -0.000002   0.000004  -0.000777   0.000057  -0.000008   0.000001
    44  C    0.001786   0.000658  -0.089659   0.034594  -0.006748   0.000195
    45  H    0.000000   0.000000   0.000226  -0.000046   0.000003  -0.000001
    46  H    0.000000   0.000000  -0.000085   0.000011  -0.000001   0.000000
              7          8          9         10         11         12
     1  N    0.008590   0.008715  -0.086816  -0.004635   0.000254   0.300067
     2  C    0.368302   0.006362   0.082243  -0.011645   0.002753   0.006046
     3  C   -0.032085  -0.004284  -0.043278  -0.006283  -0.002448  -0.067847
     4  C   -1.448262  -0.207072  -0.005599   0.015629   0.027338   0.063901
     5  C   -0.994105  -0.235728   0.231158   0.066712   0.025689  -0.019561
     6  C   -1.243176  -0.303314   0.035961  -0.012599  -0.087637  -0.008860
     7  C    8.285209   0.478975  -0.018034   0.203489  -0.031269   0.012649
     8  N    0.478975   7.386043  -0.003634  -0.082374   0.300161   0.000194
     9  O   -0.018034  -0.003634   8.421929   0.000114   0.000009   0.002555
    10  O    0.203489  -0.082374   0.000114   8.427383   0.002230   0.000015
    11  H   -0.031269   0.300161   0.000009   0.002230   0.412915   0.000000
    12  H    0.012649   0.000194   0.002555   0.000015   0.000000   0.412198
    13  C   -0.026227   0.033890   0.172253   0.024809  -0.043562  -0.003761
    14  C   -0.217187   0.096241  -0.016882  -0.007776   0.080632  -0.000516
    15  C    0.147044   0.001732  -0.110964  -0.004074  -0.003871   0.003093
    16  C   -0.007567  -0.009005  -0.002760   0.000690   0.015630  -0.000087
    17  H   -0.007876  -0.020353   0.000022   0.000189   0.007898   0.000000
    18  C   -0.006359  -0.008793  -0.136647   0.000015  -0.000195   0.000222
    19  H    0.004887  -0.000420  -0.003692  -0.000001   0.000001  -0.000003
    20  C   -0.027486   0.003333  -0.015023  -0.000486   0.001740   0.000075
    21  C    0.061852  -0.015954  -0.000896  -0.000368   0.001308  -0.000001
    22  H   -0.000105   0.000071   0.000129   0.000000   0.000000   0.000000
    23  C    0.019999  -0.017335  -0.001462  -0.000137  -0.000048   0.000001
    24  C   -0.005504  -0.000644  -0.000014   0.000048  -0.001294   0.000000
    25  H   -0.000284  -0.000119   0.000000   0.000000   0.000007   0.000000
    26  H   -0.000004  -0.000002   0.000000   0.000000   0.000000   0.000000
    27  C   -0.001897   0.001652  -0.000242   0.000009   0.000280   0.000000
    28  H    0.000000   0.000000   0.000000   0.000000   0.000000   0.000000
    29  H    0.000000   0.000000   0.000000   0.000000   0.000000   0.000000
    30  C    0.068197  -0.013534   0.043778   0.036461  -0.003215  -0.183319
    31  C   -0.308412  -0.020058   0.013229  -0.077444   0.004223  -0.037142
    32  C    0.374727   0.001837  -0.034561  -0.023039  -0.000670   0.123667
    33  C   -0.247109  -0.000474   0.000850  -0.018366  -0.000222  -0.021428
    34  H   -0.000331   0.001408   0.000003  -0.004530  -0.000004   0.000001
    35  C    0.098887  -0.000695  -0.004755   0.004653  -0.000069   0.096184
    36  H   -0.003968  -0.000059   0.000265   0.000015   0.000000   0.007925
    37  C    0.062611   0.003387  -0.001106  -0.012480  -0.000112   0.022409
    38  C   -0.096167  -0.008597   0.000215   0.008179   0.000235  -0.001611
    39  H   -0.000042   0.000000   0.000000  -0.000001   0.000000  -0.000001
    40  C    0.007685  -0.000705  -0.000220   0.000143  -0.000002   0.001626
    41  C   -0.012631  -0.001271   0.000022   0.007188   0.000008  -0.000007
    42  H    0.000441   0.000009   0.000000  -0.000270   0.000000   0.000000
    43  H    0.000006   0.000000   0.000000   0.000000   0.000000   0.000000
    44  C    0.001901   0.000097   0.000006  -0.000535   0.000000   0.000075
    45  H    0.000003   0.000000   0.000000   0.000001   0.000000   0.000000
    46  H    0.000001   0.000000   0.000000   0.000000   0.000000   0.000000
             13         14         15         16         17         18
     1  N   -0.048642   0.003964   0.033803  -0.004647  -0.000087   0.014024
     2  C   -0.841528  -0.085319   0.749284  -0.113541  -0.009730   0.252439
     3  C   -0.349275   0.085317  -0.062656  -0.089342   0.000792   0.046049
     4  C    0.149142  -0.215728   0.223520   0.129414   0.001116   0.068017
     5  C    1.158613   0.530960  -1.455654  -0.623480  -0.023465  -0.231583
     6  C    0.231014  -0.755780  -0.412748   0.087025   0.132062  -0.647898
     7  C   -0.026227  -0.217187   0.147044  -0.007567  -0.007876  -0.006359
     8  N    0.033890   0.096241   0.001732  -0.009005  -0.020353  -0.008793
     9  O    0.172253  -0.016882  -0.110964  -0.002760   0.000022  -0.136647
    10  O    0.024809  -0.007776  -0.004074   0.000690   0.000189   0.000015
    11  H   -0.043562   0.080632  -0.003871   0.015630   0.007898  -0.000195
    12  H   -0.003761  -0.000516   0.003093  -0.000087   0.000000   0.000222
    13  C   10.693999   1.326304  -2.242680  -0.991080  -0.139963  -2.081423
    14  C    1.326304   7.972318  -1.499182   0.575937   0.296020  -0.465372
    15  C   -2.242680  -1.499182  10.526531  -0.376001  -0.039170   1.833073
    16  C   -0.991080   0.575937  -0.376001  11.399902   0.066253  -1.212531
    17  H   -0.139963   0.296020  -0.039170   0.066253   0.631534  -0.023753
[...]
 -0.00006426,-0.00000011,-0.00001453,-0.00009681,0.,-0.00006527,0.00004
 561,0.00000010,-0.00002422,0.00005246,0.00000023,0.00002947,-0.0000240
 0,-0.00000017,0.00005992,-0.00004828,-0.00000014,0.00000677,0.00002145
 ,-0.00000018,0.00004007,0.00002855,0.00000006,-0.00003508,0.00000912,0
 .00000014,0.00000310,-0.00000456,0.00000012,-0.00001415,-0.00001664,0.
 00000008,-0.00000972,0.00000662,0.00000024,0.00001306,-0.00000910,0.,-
 0.00000757,0.00000856,-0.00000009,0.00000322,0.00000569,-0.00000002,0.
 00000190,-0.00000258,-0.00000002,-0.00000320,-0.00000011,0.00000006,-0
 .00000118,-0.00000399,0.00000004,-0.00000250,0.00000479,-0.00000010,0.
 00000771,-0.00000186,0.00000005,0.00000221,0.00000200,0.,-0.00000694,-
 0.00000175,0.00000008,0.00000541,0.00000481,0.00000005,-0.00000052,-0.
 00000161,-0.00000006,0.00000230,0.00000068,-0.00000006,-0.00000223,0.0
 0000723,0.00000007,-0.00000162,0.00000188,-0.00000006,0.00000009,0.000
 00220,-0.00000006,0.00037795,-0.00004022,0.00000011,0.00009553,-0.0005
 0873,-0.00000002,0.00004413,0.00048106,0.00000004,0.00057809,-0.001795
 97,0.00000013,-0.00001895,-0.00009223,0.00000001,0.00098994,-0.0013037
 1,-0.00000021,0.00002003,0.00003844,-0.00000003,0.00722028,-0.00503174
 ,-0.00000028,-0.00003505,-0.00067541,-0.00000012,0.00014227,0.00043128
 ,-0.00000003,-0.21520807,0.13715715,0.00001506,-0.00399451,-0.00372984
 ,0.00000057,0.00001708,0.00012316,-0.00000011,0.22742608,-0.00006465,-
 0.00006956,0.00000023,0.00004460,0.00002909,0.00000009,-0.00001989,0.0
 0021312,0.,0.00006071,-0.00000911,-0.00000009,0.00000509,-0.00002890,-
 0.00000020,-0.00001735,0.00001086,0.00000017,0.00000034,0.00010977,0.0
 0000011,-0.00003085,-0.00003837,0.00000015,-0.00005309,-0.00002269,-0.
 00000005,0.00004864,-0.00011260,-0.00000010,-0.00000412,0.00000469,-0.
 00000010,0.00000926,-0.00002321,-0.00000007,0.00000852,-0.00000396,-0.
 00000022,-0.00001307,0.00000821,0.00000002,0.00000832,-0.00000962,0.00
 000008,-0.00000312,-0.00000597,0.,-0.00000201,0.00000264,0.00000002,0.
 00000264,0.00000087,-0.00000006,0.00000196,0.00000183,-0.00000004,0.00
 000263,-0.00000577,0.00000010,-0.00000759,0.00000192,-0.00000005,-0.00
 000223,-0.00000247,0.,0.00000647,0.00000236,-0.00000007,-0.00000533,-0
 .00000483,-0.00000004,0.00000046,0.00000148,0.00000005,-0.00000214,-0.
 00000087,0.00000005,0.00000233,-0.00000746,-0.00000006,0.00000135,-0.0
 0000179,0.00000005,-0.00000001,-0.00000190,0.00000005,-0.00004928,0.00
 003111,-0.00000012,0.00186909,-0.00046906,-0.00000014,-0.00033251,0.00
 011873,-0.00000002,-0.00343066,-0.00425625,-0.00000006,-0.00022603,-0.
 00038071,-0.00000003,0.00191473,0.00137704,0.00000005,-0.00002458,-0.0
 0003279,0.00000003,0.02464251,-0.01609259,-0.00000220,-0.00078240,-0.0
 0041299,0.00000014,-0.00130301,-0.00005904,0.00000008,0.13776820,-0.18
 020889,-0.00001302,-0.00238754,0.00023675,-0.00000016,0.00014598,0.000
 05407,0.00000007,-0.14807417,0.18838254,0.00000012,-0.00000006,-0.0000
 0809,0.,0.00000010,0.00000579,0.00000006,0.00000021,0.00005337,-0.0000
 0007,-0.00000006,-0.00002904,-0.00000003,-0.00000019,-0.00002274,0.000
 00006,0.00000005,0.00000634,0.00000003,0.00000014,0.00000887,-0.000000
 08,0.00000004,0.00000110,-0.00000003,0.,-0.00000740,0.,-0.00000008,-0.
 00001573,0.00000007,-0.00000002,0.00000315,-0.00000010,0.00000008,0.00
 001766,-0.00000020,-0.00000015,0.00000414,-0.00000009,0.00000001,-0.00
 000314,-0.00000025,0.00000004,-0.00000234,0.00000034,-0.00000005,0.000
 00099,0.00000002,0.,0.00000109,0.00000021,0.00000005,0.00000024,0.0000
 0006,-0.00000005,0.00000153,-0.00000032,0.,0.00000057,-0.00000012,-0.0
 0000006,-0.00000063,0.00000002,0.,0.00000071,0.00000028,0.00000005,-0.
 00000082,-0.00000012,0.00000003,-0.00000065,0.00000011,0.00000006,0.00
 000071,0.00000004,0.00000002,0.00000054,-0.00000006,-0.00000007,-0.000
 00038,0.00000004,-0.00000007,0.00000049,0.00000002,0.00000010,0.000000
 43,0.00000013,-0.00000013,-0.00006947,0.00000014,-0.00000002,0.0001974
 6,-0.00000007,-0.00000010,-0.00012095,0.00000013,-0.00000025,0.0053176
 6,-0.00000002,0.00000002,0.00014847,-0.00000008,0.00000010,-0.00317044
 ,-0.00000004,-0.00000002,0.00017841,0.00000086,-0.00000056,0.00300316,
 -0.00000029,0.00000030,-0.00069143,-0.00000008,0.00000004,0.00032895,0
 .00001509,-0.00001303,-0.03578044,0.00000050,-0.00000006,0.00800302,0.
 ,-0.00000001,-0.00116556,-0.00001689,0.00001433,0.02461427,0.00039615,
 -0.00017242,0.00000006,-0.00003471,0.00007367,0.00000022,-0.00083105,-
 0.00243540,0.00000010,-0.00090896,0.00154394,-0.00000004,-0.00012352,-
 0.00077671,-0.00000006,-0.00037279,0.00053504,-0.00000012,0.00141122,0
 .00038460,0.00000022,0.00021958,-0.00001191,0.00000006,0.00002460,-0.0
 0003561,-0.00000002,-0.00062048,-0.00074735,-0.00000005,0.00001321,0.0
 0001675,-0.00000006,0.00005394,0.00004145,-0.00000010,-0.00003707,-0.0
 0020068,-0.00000013,-0.00000563,0.00008119,-0.00000006,0.00001906,0.00
 005134,-0.00000008,-0.00000869,-0.00004023,0.00000003,0.00000093,-0.00
 000198,0.00000001,-0.00000016,-0.00002740,0.00000013,-0.00000388,0.000
 00540,0.,0.00000207,0.00004889,0.,0.00001049,0.00001061,-0.00000002,0.
 00000460,0.00000406,0.,-0.00000990,-0.00003047,0.00000006,0.00001182,0
 .00000540,-0.00000006,-0.00000185,-0.00000319,0.00000002,0.00000443,0.
 00000175,0.00000001,-0.00001181,0.00003215,0.00000002,-0.00000297,0.00
 000451,0.00000003,-0.00000002,0.00000356,0.00000003,-0.01694488,0.0067
 6363,0.00000112,0.00868862,0.01444872,-0.00000020,0.00623834,-0.021470
 36,-0.00000114,-0.04483148,-0.00841659,0.00000209,0.00015239,0.0002226
 9,-0.00000002,0.02058134,0.01864915,-0.00000020,0.00003660,-0.00024615
 ,0.00000001,-0.01700339,-0.07125288,-0.00000101,0.04397307,0.05676780,
 -0.00000037,0.00009564,0.00047409,0.00000005,-0.35437970,-0.04611139,0
 .00001512,-0.22186676,0.05154667,0.00001123,0.00080011,-0.00289004,0.0
 0000032,-0.01767568,-0.00952895,0.00000093,0.68067733,0.00000517,0.000
 26248,0.00000038,0.00029333,-0.00023627,0.00000014,0.00034825,0.000042
 60,0.00000002,0.00066292,-0.00021223,-0.00000016,0.00005555,-0.0004679
 4,-0.00000049,-0.00041585,0.00010835,0.00000025,-0.00126417,-0.0002438
 9,0.00000009,0.00002642,0.00021617,0.00000031,-0.00013549,0.00004908,-
 0.00000011,0.00074567,0.00059737,-0.00000015,-0.00002435,-0.00000056,-
 0.00000017,0.00000868,-0.00000137,-0.00000009,0.00007730,-0.00006792,-
 0.00000033,-0.00009995,0.00006640,-0.00000008,0.00005201,-0.00003549,0
 .00000020,-0.00001364,-0.00004588,0.00000013,-0.00000053,0.00001061,0.
 00000003,0.00001506,-0.00000428,-0.00000007,0.00001464,-0.00000439,-0.
 00000008,0.00002014,-0.00002291,0.00000013,-0.00004779,0.00001350,-0.0
 0000007,-0.00001007,-0.00001042,-0.00000001,0.00003553,0.00000466,-0.0
 0000015,-0.00003159,-0.00002475,-0.00000005,0.00000527,0.00000706,0.00
 000009,-0.00000967,-0.00000409,0.00000009,0.00000986,-0.00003947,-0.00
 000013,0.00000652,-0.00000997,0.00000010,-0.00000003,-0.00000841,0.000
 00009,0.00326210,-0.00100513,-0.00000030,-0.00265052,-0.00407857,0.000
 00014,-0.00159982,0.00351655,0.00000013,0.00962518,0.00362884,-0.00000
 017,0.00004471,-0.00007195,0.00000001,-0.00128343,-0.00855831,-0.00000
 050,-0.00022084,-0.00050959,0.00000005,-0.03521422,-0.00469717,0.00000
 133,0.01657425,-0.04462470,-0.00000279,-0.00027809,0.00001988,0.000000
 08,-0.10542867,-0.15397406,0.00000275,0.11453896,-0.19797462,-0.000011
 67,-0.00185669,-0.00468930,-0.00000029,0.02217278,0.01044109,-0.000000
 90,0.04663482,0.72061878,-0.00000011,0.00000010,0.00000355,0.00000011,
 -0.00000010,-0.00001748,-0.00000004,0.,0.00010113,0.00000011,-0.000000
 09,0.00009305,-0.00000002,0.00000014,0.00004996,-0.00000001,-0.0000000
 4,-0.00004936,-0.00000003,-0.00000010,-0.00000527,0.,-0.00000004,-0.00
 000356,0.,-0.00000001,0.00000945,0.00000004,0.00000012,0.00000556,-0.0
 0000005,0.00000002,-0.00000283,0.00000007,-0.00000005,-0.00001854,0.00
 000015,0.00000012,0.00005364,0.00000007,-0.00000003,-0.00001697,0.0000
 0023,-0.00000001,-0.00006097,-0.00000029,0.00000005,-0.00000080,0.0000
 0001,0.00000002,-0.00000120,-0.00000018,-0.00000008,0.00002608,-0.0000
 0004,0.00000003,0.00000088,0.00000023,0.,0.00000356,0.00000011,0.00000
 005,0.00000782,0.,0.,-0.00000084,-0.00000025,-0.00000006,-0.00000580,0
 .00000010,-0.00000004,-0.00000261,-0.00000008,-0.00000004,-0.00000072,
 -0.00000002,0.,-0.00000034,0.00000004,0.00000006,0.00000179,-0.0000000
 4,0.00000007,-0.00000073,-0.00000001,-0.00000008,0.00000018,0.00000101
 ,-0.00000033,0.00012711,-0.00000074,-0.00000091,-0.00093114,-0.0000003
 7,0.00000146,-0.00000584,0.00000264,0.00000088,-0.00592823,0.00000001,
 -0.00000006,-0.00009539,-0.00000099,-0.00000149,0.00630732,-0.00000001
 ,0.00000003,-0.00068299,-0.00000008,0.00000391,0.00594012,-0.00000131,
 -0.00000542,0.00704772,0.,-0.00000007,-0.00014557,0.00001298,-0.000000
 71,-0.06030440,0.00001361,-0.00000793,-0.06200343,0.00000031,-0.000000
 27,0.00819203,0.00000210,0.00000073,0.00380356,-0.00003005,0.00001843,
 0.13320877,-0.00001625,-0.00006388,-0.00000009,0.00002129,0.00006616,-
 0.00000008,-0.00000821,0.00020676,0.,0.00011803,-0.00009856,0.,0.00005
 184,-0.00005832,-0.00000001,-0.00005573,0.00001420,0.00000001,-0.00016
 420,0.00002405,-0.00000011,0.00000249,-0.00000362,-0.00000004,-0.00003
 139,-0.00002669,0.00000004,0.00011838,0.00001966,0.00000006,-0.0000072
 8,0.00000330,0.00000004,0.00001039,0.00001233,0.00000004,0.00001552,-0
 .00000205,0.,-0.00001806,0.00000889,-0.00000001,0.00000890,-0.00001170
 ,0.00000010,-0.00000236,-0.00000654,0.00000003,-0.00000117,0.00000319,
 0.,0.00000346,0.00000088,-0.00000006,0.00000112,0.00000405,0.,0.000003
 38,-0.00000675,0.00000002,-0.00001116,0.00000171,0.00000002,-0.0000025
 3,-0.00000217,0.,0.00000890,0.00000275,-0.00000004,-0.00000688,-0.0000
 0602,0.00000006,0.00000130,0.00000213,0.,-0.00000254,-0.00000078,-0.00
 000002,0.00000291,-0.00001025,0.,0.00000198,-0.00000279,-0.00000002,-0
 .00000011,-0.00000253,-0.00000002,0.00001750,-0.00027449,-0.00000007,-
 0.00020923,0.00010063,0.00000014,-0.00001311,0.00010077,0.00000006,0.0
 0178721,-0.00045599,0.00000037,-0.00001169,-0.00000153,0.00000001,-0.0
 0007884,-0.00014992,-0.00000002,-0.00002280,-0.00001156,0.,0.00055741,
 0.00059147,-0.00000017,-0.00161599,0.00019186,0.00000045,0.00003201,0.
 00002298,0.,-0.00153631,0.00415524,0.00000059,-0.30993641,-0.08746257,
 0.00001302,0.00084051,-0.00021221,-0.00000038,-0.00096523,-0.00052812,
 0.00000002,-0.01711573,-0.01033209,0.00000082,0.32732721,0.00000620,-0
 .00010197,0.00000004,-0.00001686,0.00005590,0.,-0.00017108,0.00014191,
 0.,0.00008749,-0.00005289,-0.00000002,0.00005210,-0.00005494,-0.000000
 04,-0.00006282,0.00000990,0.00000003,-0.00013846,0.00000183,0.,0.00002
 186,0.00001715,0.00000003,-0.00001259,-0.00002381,0.,0.00013484,0.0000
 0507,0.,-0.00000804,-0.00000056,-0.00000002,0.00000815,0.00000595,0.,0
 .00001120,-0.00000093,-0.00000003,-0.00001270,0.00000498,0.,0.00000506
 ,-0.00000677,0.00000002,-0.00000021,-0.00000454,0.00000002,0.00000023,
 0.00000190,0.,0.00000232,0.00000071,-0.00000001,0.00000053,0.00000259,
 0.,0.00000251,-0.00000392,0.00000001,-0.00000801,0.00000077,0.,-0.0000
 0128,-0.00000116,0.,0.00000527,0.00000150,-0.00000002,-0.00000379,-0.0
 0000358,0.,0.00000119,0.00000117,0.,-0.00000120,-0.00000045,0.00000001
 ,0.00000152,-0.00000633,-0.00000002,0.00000095,-0.00000181,0.,0.000000
 03,-0.00000116,0.,-0.00029252,-0.00048489,0.00000002,-0.00133024,0.000
 41056,0.00000010,0.00017235,-0.00026297,-0.00000002,0.00054948,-0.0056
 0510,-0.00000055,-0.00001315,0.00003552,0.,0.00013581,0.00038561,0.000
 00003,-0.00001677,0.00000537,0.,0.00014686,-0.00104727,-0.00000007,-0.
 03118075,-0.00552986,0.00000150,-0.00008231,-0.00000651,0.00000001,0.0
 0322173,-0.00265819,-0.00000046,-0.08699412,-0.08962627,0.00000321,0.0
 0032461,0.00102301,0.00000020,0.00109154,0.00035816,-0.00000004,0.0209
 1037,0.01078306,-0.00000097,0.09401357,0.09137490,0.00000007,-0.000000
 04,0.00001136,0.,0.00000006,0.00001371,0.00000003,0.00000011,-0.000019
 21,-0.00000005,-0.00000002,-0.00000800,-0.00000005,-0.00000010,-0.0000
 0602,0.00000007,0.00000002,0.00000062,0.00000003,0.00000008,0.00001475
 ,-0.00000005,0.00000001,-0.00000360,-0.00000002,0.,-0.00000715,-0.0000
 0002,-0.00000005,-0.00003031,0.00000005,-0.00000001,0.00000593,-0.0000
 0006,0.00000005,0.00000661,-0.00000012,-0.00000010,-0.00000014,-0.0000
 0005,0.00000001,-0.00000244,-0.00000015,0.00000003,-0.00000222,0.00000
 020,-0.00000003,0.00000056,0.00000001,0.,0.00000176,0.00000012,0.00000
 002,0.00000026,0.00000003,-0.00000003,0.00000112,-0.00000021,0.,0.0000
 0147,-0.00000007,-0.00000004,-0.00000099,0.00000002,0.,0.00000066,0.00
 000017,0.00000003,-0.00000127,-0.00000007,0.00000002,-0.00000088,0.000
 00007,0.00000003,0.00000115,0.00000002,0.00000001,0.00000053,-0.000000
 03,-0.00000004,-0.00000029,0.00000002,-0.00000004,0.00000067,0.,0.0000
 0006,0.00000050,0.00000003,-0.00000006,-0.00071496,0.,-0.00000004,0.00
 029621,0.,-0.00000008,0.00013762,0.00000044,-0.00000046,0.00874607,0.,
 0.00000001,0.00019766,0.00000002,-0.00000002,-0.00087396,-0.00000003,-
 0.00000001,0.00005825,0.00000005,-0.00000020,-0.00052198,-0.00000095,-
 0.00000016,0.00376039,-0.00000002,0.00000004,0.00004083,0.00000056,-0.
 00000056,0.00528563,0.00001296,0.00000321,-0.03696551,-0.00000029,0.00
 000020,-0.00493785,0.00000006,0.00000008,0.00020626,0.00000193,0.00000
 099,0.00272007,-0.00001448,-0.00000312,0.02543010,0.00001258,-0.000033
 68,-0.00000007,0.00000805,0.00003990,-0.00000003,-0.00001915,0.0000150
 3,-0.00000001,0.00002922,-0.00001920,0.00000004,0.00002360,-0.00003559
 ,0.00000005,-0.00002825,0.00001229,-0.00000002,-0.00006245,-0.00001116
 ,-0.00000005,0.00001494,0.00001259,-0.00000005,-0.00000925,-0.00001142
 ,0.00000002,0.00005656,0.00001744,0.00000002,-0.00000138,0.00000034,0.
 00000003,0.00001113,0.00002305,0.00000002,0.00000526,-0.00000301,0.000
 00003,-0.00000494,0.00000327,0.00000003,0.00000221,-0.00000259,0.00000
 002,-0.00000068,-0.00000267,-0.00000003,-0.00000027,0.00000066,0.,0.00
 000148,0.00000027,-0.00000004,0.00000018,0.00000151,0.00000001,0.00000
 088,-0.00000160,0.,-0.00000256,0.00000072,0.00000001,-0.00000065,-0.00
 000055,0.,0.00000203,0.00000035,0.,-0.00000151,-0.00000155,0.00000002,
 0.00000023,0.00000039,-0.00000001,-0.00000069,-0.00000020,-0.00000001,
 0.00000067,-0.00000214,0.00000001,0.00000045,-0.00000053,-0.00000002,0
 .00000002,-0.00000063,-0.00000002,-0.00029026,0.00017296,-0.00000002,0
 .00036498,0.00019751,-0.00000006,-0.00040671,-0.00036093,0.,-0.0010674
 7,-0.00009814,0.,-0.00002212,-0.00006296,0.,0.00067994,-0.00121315,-0.
 00000004,-0.00004015,-0.00016244,0.,-0.00560835,-0.00060174,0.00000077
 ,-0.00366402,0.00307674,0.00000072,-0.00002278,0.00003043,0.,-0.001280
 48,-0.03093296,-0.00000078,0.00908873,0.02418216,0.00000054,0.00029679
 ,0.00121616,0.00000002,0.00101922,0.00034887,-0.00000033,-0.07062446,-
 0.05431760,0.,0.00090147,-0.00056088,-0.00000025,0.07063795,-0.0000264
 7,-0.00008350,0.,0.00002771,0.00009407,-0.00000003,0.00001701,0.000143
 50,-0.00000003,0.00005165,-0.00006729,0.00000002,0.00003711,-0.0000281
 0,0.00000003,-0.00001104,0.00001956,0.00000009,-0.00001986,0.00009363,
 0.,-0.00001564,-0.00005237,-0.00000002,-0.00004279,-0.00003990,0.,0.00
 001076,-0.00006043,-0.00000005,-0.00000485,0.00000570,0.,0.00001524,0.
 00001970,0.,0.00000970,-0.00000276,-0.00000002,-0.00001283,0.00000735,
 0.00000012,0.00000795,-0.00001005,0.00000005,-0.00000323,-0.00000442,-
 0.00000011,-0.00000228,0.00000322,0.,0.00000316,0.00000016,-0.00000013
 ,0.00000039,0.00000568,0.,0.00000209,-0.00000506,0.00000006,-0.0000086
 8,0.00000124,-0.00000001,-0.00000237,-0.00000205,0.,0.00000765,0.00000
 193,-0.00000003,-0.00000560,-0.00000512,0.,0.00000072,0.00000197,0.,-0
 .00000251,-0.00000066,0.,0.00000237,-0.00000827,-0.00000001,0.00000189
 ,-0.00000230,0.,-0.00000016,-0.00000254,0.,0.00001410,-0.00002071,-0.0
 0000020,-0.00002505,-0.00007137,0.00000003,-0.00030692,0.00003870,0.00
 000012,0.00036720,0.00064903,0.00000005,0.00000555,0.00004720,0.,0.000
 22180,-0.00047799,0.,-0.00001991,-0.00005421,0.,-0.00147521,0.00165779
 ,-0.00000032,0.00396142,-0.00066719,-0.00000025,-0.00003251,0.00001034
 ,0.,0.00039002,-0.00580930,-0.00000037,-0.00691671,-0.01515876,-0.0000
 0022,-0.00040022,-0.00084005,-0.00000002,-0.00022729,0.00087511,0.0000
 0023,-0.05486258,-0.32876290,-0.00000726,0.00018456,0.00085833,0.00000
 013,0.05908466,0.34770314,0.00000009,-0.00000006,-0.00001283,0.0000000
 2,0.00000009,0.00001134,0.00000005,0.00000016,0.00007501,-0.00000003,-
 0.00000004,-0.00000141,-0.00000006,-0.00000011,-0.00001251,0.00000009,
 0.00000001,0.00000545,-0.00000001,0.00000010,0.00000275,-0.00000006,0.
 00000002,-0.00001414,-0.00000003,0.,-0.00000331,0.,-0.00000004,0.00000
 095,0.00000005,-0.00000002,0.00000371,-0.00000008,0.00000007,-0.000006
 08,-0.00000016,-0.00000013,0.00000244,-0.00000007,0.00000002,-0.000002
 55,-0.00000019,0.00000004,0.00000093,0.00000026,-0.00000003,0.00000237
 ,0.00000001,0.,0.00000092,0.00000015,0.00000004,-0.00000067,0.00000004
 ,-0.00000003,0.00000116,-0.00000025,0.00000001,-0.00000213,-0.00000009
 ,-0.00000005,-0.00000126,0.00000002,0.,0.00000057,0.00000021,0.0000000
 3,0.00000017,-0.00000010,0.00000002,-0.00000028,0.00000008,0.00000004,
 0.00000070,0.00000003,0.00000001,0.00000047,-0.00000004,-0.00000005,-0
 .00000054,0.00000003,-0.00000006,0.00000050,0.00000001,0.00000008,0.00
 000041,0.00000009,-0.00000012,0.00020421,0.,0.,-0.00088372,-0.00000003
 ,-0.00000005,-0.00070078,0.00000004,0.00000007,-0.00058556,-0.00000001
 ,0.00000002,0.00003425,0.00000005,-0.00000002,0.00026205,-0.00000003,0
 .,0.00000385,0.00000088,-0.00000035,0.00856804,0.00000050,-0.00000021,
 0.00535044,-0.00000001,0.00000004,0.00015328,0.00000037,0.00000139,0.0
 0400884,-0.00000068,-0.00000205,0.00317640,0.00000003,-0.00000014,0.00
 007525,-0.00000040,0.00000023,-0.00481971,0.,-0.00000719,-0.03741835,-
 0.00000023,0.00000017,-0.00284396,-0.00000054,0.00000814,0.02536334||0
 .00000097,0.00000057,0.00000403,0.00000380,0.00000233,-0.00000684,-0.0
 0000145,-0.00000289,-0.00000128,0.00000137,-0.00000023,-0.00000140,-0.
 00000246,0.00000074,0.00000148,0.00000368,0.00000243,0.00000223,-0.000
 00118,0.00000114,0.00000412,-0.00000259,-0.00000329,-0.00000280,-0.000
 00167,0.00000039,0.00000298,-0.00000054,-0.00000094,-0.00000278,-0.000
 00037,-0.00000087,0.00000095,0.00000095,0.00000125,-0.00000104,0.00000
 033,-0.00000038,0.00000013,-0.00000350,-0.00000100,0.00000058,-0.00000
 126,-0.00000207,0.00000035,-0.00000316,-0.00000019,0.00000012,-0.00000
 059,-0.00000028,-0.00000075,-0.00000147,0.00000090,0.00000012,-0.00000
 088,0.00000055,-0.00000132,-0.00000070,0.00000066,-0.00000021,-0.00000
 142,-0.00000083,-0.00000004,-0.00000172,0.00000147,0.00000010,-0.00000
 105,-0.00000184,-0.00000006,-0.00000153,0.,0.00000001,-0.00000186,-0.0
 0000106,-0.00000003,-0.00000246,0.00000116,-0.00000002,-0.00000409,0.0
 0000082,0.00000005,-0.00000258,-0.00000074,0.,-0.00000249,-0.00000004,
 0.,0.00000104,0.00000106,0.00000012,-0.00000011,0.00000195,-0.00000099
 ,0.00000289,0.00000254,-0.00000114,0.00000152,-0.00000039,0.00000003,0
 .00000118,-0.00000066,0.00000213,0.00000138,0.00000053,-0.00000019,0.0
 0000100,0.00000113,0.00000107,0.00000225,-0.00000034,0.00000020,0.0000
 0190,-0.00000214,-0.00000025,0.00000171,0.00000075,0.00000010,0.000002
 53,0.00000153,0.00000008,0.00000181,-0.00000045,-0.00000003,0.00000175
 ,-0.00000032,0.00000020,0.00000229,-0.00000019,0.00000004,0.00000147,-
 0.00000102,-0.00000009,0.00000232,-0.00000114,0.00000004,0.00000307,-0
 .00000056,0.|||@


 I FIND THAT THE THREE TRULY GREAT TIMES FOR THINKING THOUGHTS
 ARE WHEN I AM STANDING IN THE SHOWER, SITTING ON THE JOHN, OR WALKING.

                                    -- COLIN FLETCHER
 Job cpu time:  0 days  4 hours 46 minutes 45.0 seconds.
 File lengths (MBytes):  RWF=   1694 Int=      0 D2E=      0 Chk=     28 Scr=      1
 Normal termination of Gaussian 09 at Sun Jul 16 23:28:30 2023.
