 Entering Link 1 = C:\G09W\l1.exe PID=      1264.
  
 Copyright (c) 1988,1990,1992,1993,1995,1998,2003,2009,2010,
            Gaussian, Inc.  All Rights Reserved.
  
 This is part of the Gaussian(R) 09 program.  It is based on
 the Gaussian(R) 03 system (copyright 2003, Gaussian, Inc.),
 the Gaussian(R) 98 system (copyright 1998, Gaussian, Inc.),
 the Gaussian(R) 94 system (copyright 1995, Gaussian, Inc.),
 the Gaussian 92(TM) system (copyright 1992, Gaussian, Inc.),
 the Gaussian 90(TM) system (copyright 1990, Gaussian, Inc.),
 the Gaussian 88(TM) system (copyright 1988, Gaussian, Inc.),
 the Gaussian 86(TM) system (copyright 1986, Carnegie Mellon
 University), and the Gaussian 82(TM) system (copyright 1983,
 Carnegie Mellon University). Gaussian is a federally registered
 trademark of Gaussian, Inc.
  
 This software contains proprietary and confidential information,
 including trade secrets, belonging to Gaussian, Inc.
  
 This software is provided under written license and may be
 used, copied, transmitted, or stored only in accord with that
 written license.
  
 The following legend is applicable only to US Government
 contracts under FAR:
  
                    RESTRICTED RIGHTS LEGEND
  
 Use, reproduction and disclosure by the US Government is
 subject to restrictions as set forth in subparagraphs (a)
 and (c) of the Commercial Computer Software - Restricted
 Rights clause in FAR 52.227-19.
  
 Gaussian, Inc.
 340 Quinnipiac St., Bldg. 40, Wallingford CT 06492
  
  
 ---------------------------------------------------------------
 Warning -- This program may not be used in any manner that
 competes with the business of Gaussian, Inc. or will provide
 assistance to any competitor of Gaussian, Inc.  The licensee
 of this program is prohibited from giving any competitor of
 Gaussian, Inc. access to this program.  By using this program,
 the user acknowledges that Gaussian, Inc. is engaged in the
 business of creating and licensing software in the field of
 computational chemistry and represents and warrants to the
 licensee that it is not a competitor of Gaussian, Inc. and that
 it will not use this program in any manner prohibited above.
 ---------------------------------------------------------------
  

 Cite this work as:
 Gaussian 09, Revision B.01,
 M. J. Frisch, G. W. Trucks, H. B. Schlegel, G. E. Scuseria, 
 M. A. Robb, J. R. Cheeseman, G. Scalmani, V. Barone, B. Mennucci, 
 G. A. Petersson, H. Nakatsuji, M. Caricato, X. Li, H. P. Hratchian, 
 A. F. Izmaylov, J. Bloino, G. Zheng, J. L. Sonnenberg, M. Hada, 
 M. Ehara, K. Toyota, R. Fukuda, J. Hasegawa, M. Ishida, T. Nakajima, 
 Y. Honda, O. Kitao, H. Nakai, T. Vreven, J. A. Montgomery, Jr., 
 J. E. Peralta, F. Ogliaro, M. Bearpark, J. J. Heyd, E. Brothers, 
 K. N. Kudin, V. N. Staroverov, T. Keith, R. Kobayashi, J. Normand, 
 K. Raghavachari, A. Rendell, J. C. Burant, S. S. Iyengar, J. Tomasi, 
 M. Cossi, N. Rega, J. M. Millam, M. Klene, J. E. Knox, J. B. Cross, 
 V. Bakken, C. Adamo, J. Jaramillo, R. Gomperts, R. E. Stratmann, 
 O. Yazyev, A. J. Austin, R. Cammi, C. Pomelli, J. W. Ochterski, 
 R. L. Martin, K. Morokuma, V. G. Zakrzewski, G. A. Voth, 
 P. Salvador, J. J. Dannenberg, S. Dapprich, A. D. Daniels, 
 O. Farkas, J. B. Foresman, J. V. Ortiz, J. Cioslowski, 
 and D. J. Fox, Gaussian, Inc., Wallingford CT, 2010.
 
 ******************************************
 Gaussian 09:  IA32W-G09RevB.01 12-Aug-2010
                18-Jul-2023 
 ******************************************
 %nprocshared=6
 Will use up to    6 processors via shared memory.
 %chk=G:\Meu Drive\POS-DOC-IME\SUBSTITUINTES-DOADORES\DPP-substituido\DPP-SUB-2-A
 NION.chk
 ----------------------------------------------
 # opt freq b3lyp/6-31+g(d,p) geom=connectivity
 ----------------------------------------------
 1/14=-1,18=20,19=15,26=3,38=1,57=2/1,3;
 2/9=110,12=2,17=6,18=5,40=1/2;
 3/5=1,6=6,7=111,11=2,16=1,25=1,30=1,71=1,74=-5/1,2,3;
 4//1;
 5/5=2,38=5/2;
 6/7=2,8=2,9=2,10=2,28=1/1;
 7//1,2,3,16;
 1/14=-1,18=20,19=15/3(2);
 2/9=110/2;
 99//99;
 2/9=110/2;
 3/5=1,6=6,7=111,11=2,16=1,25=1,30=1,71=1,74=-5/1,2,3;
 4/5=5,16=3/1;
 5/5=2,38=5/2;
 7//1,2,3,16;
 1/14=-1,18=20,19=15/3(-5);
 2/9=110/2;
 6/7=2,8=2,9=2,10=2,19=2,28=1/1;
 99/9=1/99;
 -------
 Energy:
 -------
 Symbolic Z-matrix:
 Charge = -1 Multiplicity = 2
 N                     1.12975   2.22892   0.00011 
 C                    -0.28729   2.18586   0.00011 
 C                     1.72323   0.97115  -0.00001 
 C                     0.68182   0.05285  -0.00005 
 C                    -0.57066   0.75348   0.00003 
 C                    -1.60889  -0.16861  -0.00001 
 C                     0.40494  -1.37651  -0.00014 
 N                    -1.01011  -1.42496  -0.00013 
 O                    -0.99057   3.19182   0.00021 
 O                     1.11753  -2.37838  -0.00025 
 H                    -1.49268  -2.31034  -0.00012 
 H                     1.61419   3.11335   0.00011 
 C                    -3.05287   0.01132   0.00002 
 C                    -3.92536  -1.07311   0.00001 
 C                    -3.59624   1.33561   0.00006 
 C                    -5.33044  -0.89673   0.00004 
 H                    -3.55354  -2.09401  -0.00005 
 C                    -4.95536   1.52949   0.0001 
 H                    -2.92198   2.18648   0.00005 
 C                    -5.8643    0.43405   0.0001 
 C                    -6.22995  -2.00047   0.00003 
 H                    -5.35375   2.54062   0.00013 
 C                    -7.27319   0.60879   0.00013 
 C                    -7.59264  -1.79748   0.00007 
 H                    -5.82445  -3.00912  -0.00001 
 H                    -7.6757    1.61829   0.00017 
 C                    -8.11939  -0.4807    0.00012 
 H                    -8.26946  -2.64671   0.00006 
 H                    -9.19538  -0.33353   0.00015 
 C                     3.16594   0.78546  -0.00004 
 C                     3.69779  -0.50224   0.00003 
 C                     4.06121   1.90121  -0.00012 
 C                     5.09709  -0.71769  -0.00001 
 H                     3.03263  -1.36211   0.00012 
 C                     5.42159   1.71467  -0.00016 
 H                     3.6779    2.91665  -0.00015 
 C                     5.98547   0.40785  -0.0001 
 C                     5.64756  -2.03123   0.00006 
 H                     6.08684   2.57397  -0.00022 
 C                     7.38642   0.17981  -0.00014 
 C                     7.01235  -2.21994   0.00002 
 H                     4.96988  -2.88035   0.00013 
 H                     8.05905   1.03365  -0.00021 
 C                     7.8891   -1.10511  -0.00008 
 H                     7.42283  -3.22528   0.00007 
 H                     8.96299  -1.26751  -0.0001 
 

 GradGradGradGradGradGradGradGradGradGradGradGradGradGradGradGradGradGrad
 Berny optimization.
 Initialization pass.
                           ----------------------------
                           !    Initial Parameters    !
                           ! (Angstroms and Degrees)  !
 --------------------------                            --------------------------
 ! Name  Definition              Value          Derivative Info.                !
 --------------------------------------------------------------------------------
 ! R1    R(1,2)                  1.4177         estimate D2E/DX2                !
 ! R2    R(1,3)                  1.3908         estimate D2E/DX2                !
 ! R3    R(1,12)                 1.0084         estimate D2E/DX2                !
 ! R4    R(2,5)                  1.4601         estimate D2E/DX2                !
 ! R5    R(2,9)                  1.2274         estimate D2E/DX2                !
 ! R6    R(3,4)                  1.3885         estimate D2E/DX2                !
 ! R7    R(3,30)                 1.4546         estimate D2E/DX2                !
 ! R8    R(4,5)                  1.4351         estimate D2E/DX2                !
 ! R9    R(4,7)                  1.4559         estimate D2E/DX2                !
 ! R10   R(5,6)                  1.3886         estimate D2E/DX2                !
 ! R11   R(6,8)                  1.3917         estimate D2E/DX2                !
 ! R12   R(6,13)                 1.4551         estimate D2E/DX2                !
 ! R13   R(7,8)                  1.4159         estimate D2E/DX2                !
 ! R14   R(7,10)                 1.2294         estimate D2E/DX2                !
 ! R15   R(8,11)                 1.0084         estimate D2E/DX2                !
 ! R16   R(13,14)                1.3918         estimate D2E/DX2                !
 ! R17   R(13,15)                1.4314         estimate D2E/DX2                !
 ! R18   R(14,16)                1.4161         estimate D2E/DX2                !
 ! R19   R(14,17)                1.0865         estimate D2E/DX2                !
 ! R20   R(15,18)                1.3729         estimate D2E/DX2                !
 ! R21   R(15,19)                1.0856         estimate D2E/DX2                !
 ! R22   R(16,20)                1.4339         estimate D2E/DX2                !
 ! R23   R(16,21)                1.4239         estimate D2E/DX2                !
 ! R24   R(18,20)                1.4234         estimate D2E/DX2                !
 ! R25   R(18,22)                1.0868         estimate D2E/DX2                !
 ! R26   R(20,23)                1.4197         estimate D2E/DX2                !
 ! R27   R(21,24)                1.3777         estimate D2E/DX2                !
 ! R28   R(21,25)                1.0871         estimate D2E/DX2                !
 ! R29   R(23,26)                1.0868         estimate D2E/DX2                !
 ! R30   R(23,27)                1.3795         estimate D2E/DX2                !
 ! R31   R(24,27)                1.4182         estimate D2E/DX2                !
 ! R32   R(24,28)                1.0859         estimate D2E/DX2                !
 ! R33   R(27,29)                1.086          estimate D2E/DX2                !
 ! R34   R(30,31)                1.3932         estimate D2E/DX2                !
 ! R35   R(30,32)                1.4305         estimate D2E/DX2                !
 ! R36   R(31,33)                1.4158         estimate D2E/DX2                !
 ! R37   R(31,34)                1.0871         estimate D2E/DX2                !
 ! R38   R(32,35)                1.3731         estimate D2E/DX2                !
 ! R39   R(32,36)                1.0854         estimate D2E/DX2                !
 ! R40   R(33,37)                1.4339         estimate D2E/DX2                !
 ! R41   R(33,38)                1.4242         estimate D2E/DX2                !
 ! R42   R(35,37)                1.4233         estimate D2E/DX2                !
 ! R43   R(35,39)                1.0867         estimate D2E/DX2                !
 ! R44   R(37,40)                1.4194         estimate D2E/DX2                !
 ! R45   R(38,41)                1.3778         estimate D2E/DX2                !
 ! R46   R(38,42)                1.0864         estimate D2E/DX2                !
 ! R47   R(40,43)                1.087          estimate D2E/DX2                !
 ! R48   R(40,44)                1.3798         estimate D2E/DX2                !
 ! R49   R(41,44)                1.4183         estimate D2E/DX2                !
 ! R50   R(41,45)                1.0859         estimate D2E/DX2                !
 ! R51   R(44,46)                1.0861         estimate D2E/DX2                !
 ! A1    A(2,1,3)              113.52           estimate D2E/DX2                !
 ! A2    A(2,1,12)             120.452          estimate D2E/DX2                !
 ! A3    A(3,1,12)             126.0279         estimate D2E/DX2                !
 ! A4    A(1,2,5)              102.931          estimate D2E/DX2                !
 ! A5    A(1,2,9)              123.2172         estimate D2E/DX2                !
 ! A6    A(5,2,9)              133.8517         estimate D2E/DX2                !
 ! A7    A(1,3,4)              106.1446         estimate D2E/DX2                !
 ! A8    A(1,3,30)             122.5949         estimate D2E/DX2                !
 ! A9    A(4,3,30)             131.2605         estimate D2E/DX2                !
 ! A10   A(3,4,5)              109.3723         estimate D2E/DX2                !
 ! A11   A(3,4,7)              142.3679         estimate D2E/DX2                !
 ! A12   A(5,4,7)              108.2598         estimate D2E/DX2                !
 ! A13   A(2,5,4)              108.032          estimate D2E/DX2                !
 ! A14   A(2,5,6)              142.7998         estimate D2E/DX2                !
 ! A15   A(4,5,6)              109.1682         estimate D2E/DX2                !
 ! A16   A(5,6,8)              106.1266         estimate D2E/DX2                !
 ! A17   A(5,6,13)             131.2878         estimate D2E/DX2                !
 ! A18   A(8,6,13)             122.5855         estimate D2E/DX2                !
 ! A19   A(4,7,8)              102.9239         estimate D2E/DX2                !
 ! A20   A(4,7,10)             133.6146         estimate D2E/DX2                !
 ! A21   A(8,7,10)             123.4615         estimate D2E/DX2                !
 ! A22   A(6,8,7)              113.5215         estimate D2E/DX2                !
 ! A23   A(6,8,11)             125.9249         estimate D2E/DX2                !
 ! A24   A(7,8,11)             120.5535         estimate D2E/DX2                !
 ! A25   A(6,13,14)            121.7157         estimate D2E/DX2                !
 ! A26   A(6,13,15)            119.4116         estimate D2E/DX2                !
 ! A27   A(14,13,15)           118.8727         estimate D2E/DX2                !
 ! A28   A(13,14,16)           121.6635         estimate D2E/DX2                !
 ! A29   A(13,14,17)           121.1697         estimate D2E/DX2                !
 ! A30   A(16,14,17)           117.1668         estimate D2E/DX2                !
 ! A31   A(13,15,18)           120.4271         estimate D2E/DX2                !
 ! A32   A(13,15,19)           119.2961         estimate D2E/DX2                !
 ! A33   A(18,15,19)           120.2768         estimate D2E/DX2                !
 ! A34   A(14,16,20)           119.014          estimate D2E/DX2                !
 ! A35   A(14,16,21)           122.0239         estimate D2E/DX2                !
 ! A36   A(20,16,21)           118.9621         estimate D2E/DX2                !
 ! A37   A(15,18,20)           121.5661         estimate D2E/DX2                !
 ! A38   A(15,18,22)           119.623          estimate D2E/DX2                !
 ! A39   A(20,18,22)           118.8109         estimate D2E/DX2                !
 ! A40   A(16,20,18)           118.4566         estimate D2E/DX2                !
 ! A41   A(16,20,23)           118.9292         estimate D2E/DX2                !
 ! A42   A(18,20,23)           122.6142         estimate D2E/DX2                !
 ! A43   A(16,21,24)           120.7061         estimate D2E/DX2                !
 ! A44   A(16,21,25)           118.9197         estimate D2E/DX2                !
 ! A45   A(24,21,25)           120.3742         estimate D2E/DX2                !
 ! A46   A(20,23,26)           118.8088         estimate D2E/DX2                !
 ! A47   A(20,23,27)           120.7662         estimate D2E/DX2                !
 ! A48   A(26,23,27)           120.425          estimate D2E/DX2                !
 ! A49   A(21,24,27)           120.2756         estimate D2E/DX2                !
 ! A50   A(21,24,28)           120.0813         estimate D2E/DX2                !
 ! A51   A(27,24,28)           119.6431         estimate D2E/DX2                !
 ! A52   A(23,27,24)           120.3608         estimate D2E/DX2                !
 ! A53   A(23,27,29)           120.0483         estimate D2E/DX2                !
 ! A54   A(24,27,29)           119.5909         estimate D2E/DX2                !
 ! A55   A(3,30,31)            119.7761         estimate D2E/DX2                !
 ! A56   A(3,30,32)            121.4089         estimate D2E/DX2                !
 ! A57   A(31,30,32)           118.815          estimate D2E/DX2                !
 ! A58   A(30,31,33)           121.1948         estimate D2E/DX2                !
 ! A59   A(30,31,34)           119.8339         estimate D2E/DX2                !
 ! A60   A(33,31,34)           118.9713         estimate D2E/DX2                !
 ! A61   A(30,32,35)           120.9354         estimate D2E/DX2                !
 ! A62   A(30,32,36)           120.5765         estimate D2E/DX2                !
 ! A63   A(35,32,36)           118.4882         estimate D2E/DX2                !
 ! A64   A(31,33,37)           119.5307         estimate D2E/DX2                !
 ! A65   A(31,33,38)           121.4902         estimate D2E/DX2                !
 ! A66   A(37,33,38)           118.9791         estimate D2E/DX2                !
 ! A67   A(32,35,37)           121.1476         estimate D2E/DX2                !
 ! A68   A(32,35,39)           119.9387         estimate D2E/DX2                !
 ! A69   A(37,35,39)           118.9138         estimate D2E/DX2                !
 ! A70   A(33,37,35)           118.3766         estimate D2E/DX2                !
 ! A71   A(33,37,40)           119.0388         estimate D2E/DX2                !
 ! A72   A(35,37,40)           122.5846         estimate D2E/DX2                !
 ! A73   A(33,38,41)           120.6096         estimate D2E/DX2                !
 ! A74   A(33,38,42)           118.6695         estimate D2E/DX2                !
 ! A75   A(41,38,42)           120.7209         estimate D2E/DX2                !
 ! A76   A(37,40,43)           118.9852         estimate D2E/DX2                !
 ! A77   A(37,40,44)           120.6108         estimate D2E/DX2                !
 ! A78   A(43,40,44)           120.404          estimate D2E/DX2                !
 ! A79   A(38,41,44)           120.3105         estimate D2E/DX2                !
 ! A80   A(38,41,45)           120.0826         estimate D2E/DX2                !
 ! A81   A(44,41,45)           119.6069         estimate D2E/DX2                !
 ! A82   A(40,44,41)           120.4512         estimate D2E/DX2                !
 ! A83   A(40,44,46)           119.9653         estimate D2E/DX2                !
 ! A84   A(41,44,46)           119.5836         estimate D2E/DX2                !
 ! D1    D(3,1,2,5)              0.0017         estimate D2E/DX2                !
 ! D2    D(3,1,2,9)            179.9991         estimate D2E/DX2                !
 ! D3    D(12,1,2,5)           179.9971         estimate D2E/DX2                !
 ! D4    D(12,1,2,9)            -0.0056         estimate D2E/DX2                !
 ! D5    D(2,1,3,4)             -0.0014         estimate D2E/DX2                !
 ! D6    D(2,1,3,30)           179.9995         estimate D2E/DX2                !
 ! D7    D(12,1,3,4)          -179.9964         estimate D2E/DX2                !
 ! D8    D(12,1,3,30)            0.0045         estimate D2E/DX2                !
 ! D9    D(1,2,5,4)             -0.0014         estimate D2E/DX2                !
 ! D10   D(1,2,5,6)            179.9993         estimate D2E/DX2                !
 ! D11   D(9,2,5,4)           -179.9983         estimate D2E/DX2                !
 ! D12   D(9,2,5,6)              0.0024         estimate D2E/DX2                !
 ! D13   D(1,3,4,5)              0.0004         estimate D2E/DX2                !
 ! D14   D(1,3,4,7)           -179.9995         estimate D2E/DX2                !
 ! D15   D(30,3,4,5)           179.9994         estimate D2E/DX2                !
 ! D16   D(30,3,4,7)            -0.0005         estimate D2E/DX2                !
 ! D17   D(1,3,30,31)          179.9917         estimate D2E/DX2                !
 ! D18   D(1,3,30,32)           -0.0079         estimate D2E/DX2                !
 ! D19   D(4,3,30,31)           -0.0071         estimate D2E/DX2                !
 ! D20   D(4,3,30,32)          179.9932         estimate D2E/DX2                !
 ! D21   D(3,4,5,2)              0.0007         estimate D2E/DX2                !
 ! D22   D(3,4,5,6)           -179.9998         estimate D2E/DX2                !
 ! D23   D(7,4,5,2)           -179.9994         estimate D2E/DX2                !
 ! D24   D(7,4,5,6)              0.0001         estimate D2E/DX2                !
 ! D25   D(3,4,7,8)           -179.9995         estimate D2E/DX2                !
 ! D26   D(3,4,7,10)            -0.0015         estimate D2E/DX2                !
 ! D27   D(5,4,7,8)              0.0006         estimate D2E/DX2                !
 ! D28   D(5,4,7,10)           179.9987         estimate D2E/DX2                !
 ! D29   D(2,5,6,8)            179.9984         estimate D2E/DX2                !
 ! D30   D(2,5,6,13)            -0.0001         estimate D2E/DX2                !
 ! D31   D(4,5,6,8)             -0.0009         estimate D2E/DX2                !
 ! D32   D(4,5,6,13)          -179.9994         estimate D2E/DX2                !
 ! D33   D(5,6,8,7)              0.0013         estimate D2E/DX2                !
 ! D34   D(5,6,8,11)           179.9951         estimate D2E/DX2                !
 ! D35   D(13,6,8,7)          -179.9999         estimate D2E/DX2                !
 ! D36   D(13,6,8,11)           -0.0061         estimate D2E/DX2                !
 ! D37   D(5,6,13,14)         -179.9983         estimate D2E/DX2                !
 ! D38   D(5,6,13,15)            0.0022         estimate D2E/DX2                !
 ! D39   D(8,6,13,14)            0.0034         estimate D2E/DX2                !
 ! D40   D(8,6,13,15)         -179.9962         estimate D2E/DX2                !
 ! D41   D(4,7,8,6)             -0.0012         estimate D2E/DX2                !
 ! D42   D(4,7,8,11)          -179.9954         estimate D2E/DX2                !
 ! D43   D(10,7,8,6)          -179.9995         estimate D2E/DX2                !
 ! D44   D(10,7,8,11)            0.0063         estimate D2E/DX2                !
 ! D45   D(6,13,14,16)         179.9998         estimate D2E/DX2                !
 ! D46   D(6,13,14,17)          -0.0009         estimate D2E/DX2                !
 ! D47   D(15,13,14,16)         -0.0007         estimate D2E/DX2                !
 ! D48   D(15,13,14,17)        179.9986         estimate D2E/DX2                !
 ! D49   D(6,13,15,18)        -179.9997         estimate D2E/DX2                !
 ! D50   D(6,13,15,19)           0.001          estimate D2E/DX2                !
 ! D51   D(14,13,15,18)          0.0008         estimate D2E/DX2                !
 ! D52   D(14,13,15,19)       -179.9985         estimate D2E/DX2                !
 ! D53   D(13,14,16,20)          0.0001         estimate D2E/DX2                !
 ! D54   D(13,14,16,21)       -179.9999         estimate D2E/DX2                !
 ! D55   D(17,14,16,20)       -179.9992         estimate D2E/DX2                !
 ! D56   D(17,14,16,21)          0.0008         estimate D2E/DX2                !
 ! D57   D(13,15,18,20)         -0.0003         estimate D2E/DX2                !
 ! D58   D(13,15,18,22)        180.0            estimate D2E/DX2                !
 ! D59   D(19,15,18,20)        179.9989         estimate D2E/DX2                !
 ! D60   D(19,15,18,22)         -0.0007         estimate D2E/DX2                !
 ! D61   D(14,16,20,18)          0.0003         estimate D2E/DX2                !
 ! D62   D(14,16,20,23)       -179.9999         estimate D2E/DX2                !
 ! D63   D(21,16,20,18)       -179.9997         estimate D2E/DX2                !
 ! D64   D(21,16,20,23)          0.0001         estimate D2E/DX2                !
 ! D65   D(14,16,21,24)        179.9999         estimate D2E/DX2                !
 ! D66   D(14,16,21,25)         -0.0001         estimate D2E/DX2                !
 ! D67   D(20,16,21,24)         -0.0001         estimate D2E/DX2                !
 ! D68   D(20,16,21,25)        179.9999         estimate D2E/DX2                !
 ! D69   D(15,18,20,16)         -0.0002         estimate D2E/DX2                !
 ! D70   D(15,18,20,23)       -180.0            estimate D2E/DX2                !
 ! D71   D(22,18,20,16)        179.9995         estimate D2E/DX2                !
 ! D72   D(22,18,20,23)         -0.0003         estimate D2E/DX2                !
 ! D73   D(16,20,23,26)       -180.0            estimate D2E/DX2                !
 ! D74   D(16,20,23,27)          0.0            estimate D2E/DX2                !
 ! D75   D(18,20,23,26)         -0.0002         estimate D2E/DX2                !
 ! D76   D(18,20,23,27)        179.9997         estimate D2E/DX2                !
 ! D77   D(16,21,24,27)         -0.0001         estimate D2E/DX2                !
 ! D78   D(16,21,24,28)       -180.0            estimate D2E/DX2                !
 ! D79   D(25,21,24,27)        180.0            estimate D2E/DX2                !
 ! D80   D(25,21,24,28)          0.0001         estimate D2E/DX2                !
 ! D81   D(20,23,27,24)         -0.0001         estimate D2E/DX2                !
 ! D82   D(20,23,27,29)       -180.0            estimate D2E/DX2                !
 ! D83   D(26,23,27,24)        179.9999         estimate D2E/DX2                !
 ! D84   D(26,23,27,29)          0.0            estimate D2E/DX2                !
 ! D85   D(21,24,27,23)          0.0001         estimate D2E/DX2                !
 ! D86   D(21,24,27,29)       -180.0            estimate D2E/DX2                !
 ! D87   D(28,24,27,23)       -179.9999         estimate D2E/DX2                !
 ! D88   D(28,24,27,29)          0.0            estimate D2E/DX2                !
 ! D89   D(3,30,31,33)         179.9998         estimate D2E/DX2                !
 ! D90   D(3,30,31,34)          -0.0011         estimate D2E/DX2                !
 ! D91   D(32,30,31,33)         -0.0005         estimate D2E/DX2                !
 ! D92   D(32,30,31,34)        179.9985         estimate D2E/DX2                !
 ! D93   D(3,30,32,35)        -179.9998         estimate D2E/DX2                !
 ! D94   D(3,30,32,36)           0.0009         estimate D2E/DX2                !
 ! D95   D(31,30,32,35)          0.0006         estimate D2E/DX2                !
 ! D96   D(31,30,32,36)       -179.9988         estimate D2E/DX2                !
 ! D97   D(30,31,33,37)          0.0001         estimate D2E/DX2                !
 ! D98   D(30,31,33,38)       -180.0            estimate D2E/DX2                !
 ! D99   D(34,31,33,37)       -179.9989         estimate D2E/DX2                !
 ! D100  D(34,31,33,38)          0.001          estimate D2E/DX2                !
 ! D101  D(30,32,35,37)         -0.0002         estimate D2E/DX2                !
 ! D102  D(30,32,35,39)       -179.9998         estimate D2E/DX2                !
 ! D103  D(36,32,35,37)        179.9992         estimate D2E/DX2                !
 ! D104  D(36,32,35,39)         -0.0005         estimate D2E/DX2                !
 ! D105  D(31,33,37,35)          0.0002         estimate D2E/DX2                !
 ! D106  D(31,33,37,40)       -179.9999         estimate D2E/DX2                !
 ! D107  D(38,33,37,35)       -179.9997         estimate D2E/DX2                !
 ! D108  D(38,33,37,40)          0.0002         estimate D2E/DX2                !
 ! D109  D(31,33,38,41)        179.9999         estimate D2E/DX2                !
 ! D110  D(31,33,38,42)         -0.0002         estimate D2E/DX2                !
 ! D111  D(37,33,38,41)         -0.0002         estimate D2E/DX2                !
 ! D112  D(37,33,38,42)        179.9998         estimate D2E/DX2                !
 ! D113  D(32,35,37,33)         -0.0002         estimate D2E/DX2                !
 ! D114  D(32,35,37,40)        180.0            estimate D2E/DX2                !
 ! D115  D(39,35,37,33)        179.9995         estimate D2E/DX2                !
 ! D116  D(39,35,37,40)         -0.0004         estimate D2E/DX2                !
 ! D117  D(33,37,40,43)       -179.9999         estimate D2E/DX2                !
 ! D118  D(33,37,40,44)         -0.0001         estimate D2E/DX2                !
 ! D119  D(35,37,40,43)         -0.0001         estimate D2E/DX2                !
 ! D120  D(35,37,40,44)        179.9997         estimate D2E/DX2                !
 ! D121  D(33,38,41,44)          0.0001         estimate D2E/DX2                !
 ! D122  D(33,38,41,45)        180.0            estimate D2E/DX2                !
 ! D123  D(42,38,41,44)       -179.9998         estimate D2E/DX2                !
 ! D124  D(42,38,41,45)          0.0001         estimate D2E/DX2                !
 ! D125  D(37,40,44,41)          0.0            estimate D2E/DX2                !
 ! D126  D(37,40,44,46)       -180.0            estimate D2E/DX2                !
 ! D127  D(43,40,44,41)        179.9998         estimate D2E/DX2                !
 ! D128  D(43,40,44,46)         -0.0001         estimate D2E/DX2                !
 ! D129  D(38,41,44,40)          0.0            estimate D2E/DX2                !
 ! D130  D(38,41,44,46)       -180.0            estimate D2E/DX2                !
 ! D131  D(45,41,44,40)       -179.9999         estimate D2E/DX2                !
 ! D132  D(45,41,44,46)          0.0001         estimate D2E/DX2                !
 --------------------------------------------------------------------------------
 Trust Radius=3.00D-01 FncErr=1.00D-07 GrdErr=1.00D-06
 Number of steps in this run=    276 maximum allowed number of steps=    276.
 GradGradGradGradGradGradGradGradGradGradGradGradGradGradGradGradGradGrad

                          Input orientation:                          
 ---------------------------------------------------------------------
 Center     Atomic      Atomic             Coordinates (Angstroms)
 Number     Number       Type             X           Y           Z
 ---------------------------------------------------------------------
      1          7           0        1.129745    2.228916    0.000105
      2          6           0       -0.287290    2.185855    0.000106
      3          6           0        1.723230    0.971151   -0.000006
      4          6           0        0.681815    0.052851   -0.000050
      5          6           0       -0.570660    0.753481    0.000026
      6          6           0       -1.608894   -0.168609   -0.000013
      7          6           0        0.404941   -1.376508   -0.000144
      8          7           0       -1.010110   -1.424962   -0.000132
      9          8           0       -0.990571    3.191820    0.000212
     10          8           0        1.117529   -2.378378   -0.000250
     11          1           0       -1.492681   -2.310341   -0.000117
     12          1           0        1.614188    3.113349    0.000109
     13          6           0       -3.052873    0.011320    0.000021
     14          6           0       -3.925356   -1.073112    0.000005
     15          6           0       -3.596243    1.335614    0.000062
     16          6           0       -5.330437   -0.896730    0.000042
     17          1           0       -3.553543   -2.094005   -0.000049
     18          6           0       -4.955357    1.529487    0.000101
     19          1           0       -2.921976    2.186476    0.000050
     20          6           0       -5.864301    0.434052    0.000095
     21          6           0       -6.229950   -2.000471    0.000028
     22          1           0       -5.353749    2.540622    0.000132
     23          6           0       -7.273187    0.608794    0.000134
     24          6           0       -7.592644   -1.797476    0.000066
     25          1           0       -5.824448   -3.009116   -0.000014
     26          1           0       -7.675701    1.618289    0.000174
     27          6           0       -8.119392   -0.480696    0.000121
     28          1           0       -8.269464   -2.646708    0.000055
     29          1           0       -9.195383   -0.333531    0.000151
     30          6           0        3.165939    0.785458   -0.000037
     31          6           0        3.697789   -0.502242    0.000025
     32          6           0        4.061208    1.901211   -0.000123
     33          6           0        5.097093   -0.717691   -0.000007
     34          1           0        3.032627   -1.362105    0.000115
     35          6           0        5.421585    1.714673   -0.000156
     36          1           0        3.677903    2.916653   -0.000153
     37          6           0        5.985468    0.407846   -0.000102
     38          6           0        5.647560   -2.031229    0.000055
     39          1           0        6.086838    2.573967   -0.000219
     40          6           0        7.386422    0.179814   -0.000135
     41          6           0        7.012354   -2.219940    0.000021
     42          1           0        4.969881   -2.880345    0.000131
     43          1           0        8.059050    1.033649   -0.000206
     44          6           0        7.889098   -1.105114   -0.000075
     45          1           0        7.422834   -3.225280    0.000069
     46          1           0        8.962990   -1.267513   -0.000101
 ---------------------------------------------------------------------
                    Distance matrix (angstroms):
                    1          2          3          4          5
     1  N    0.000000
     2  C    1.417689   0.000000
     3  C    1.390754   2.348978   0.000000
     4  C    2.221689   2.342834   1.388460   0.000000
     5  C    2.251285   1.460135   2.304194   1.435122   0.000000
     6  C    3.639817   2.700026   3.521662   2.301389   1.388589
     7  C    3.677557   3.628996   2.692469   1.455928   2.342787
     8  N    4.234360   3.682454   3.634901   2.246451   2.222325
     9  O    2.328717   1.227424   3.506578   3.556684   2.474232
    10  O    4.607310   4.775536   3.403853   2.469964   3.557882
    11  H    5.242325   4.654970   4.594592   3.211403   3.199551
    12  H    1.008418   2.115624   2.144971   3.199370   3.215982
    13  C    4.734134   3.518103   4.871595   3.734919   2.590788
    14  C    6.037999   4.884300   6.007124   4.742765   3.819742
    15  C    4.809673   3.416443   5.331944   4.466236   3.081076
    16  C    7.176602   5.910640   7.296794   6.086779   5.037725
    17  H    6.373447   5.383829   6.102419   4.748394   4.123805
    18  C    6.125167   4.713986   6.701885   5.827363   4.452837
    19  H    4.051943   2.634686   4.801557   4.188038   2.753573
    20  C    7.220680   5.845671   7.606517   6.557206   5.303270
    21  C    8.488394   7.269149   8.490207   7.210314   6.293792
    22  H    6.490983   5.078865   7.248922   6.528173   5.106057
    23  C    8.557690   7.161695   9.003712   7.974405   6.704088
    24  C    9.606867   8.320765   9.718580   8.478820   7.470987
    25  H    8.706192   7.592618   8.532876   7.190765   6.462153
    26  H    8.826593   7.410179   9.421183   8.502862   7.157479
    27  C    9.637870   8.273591   9.949124   8.817365   7.648957
    28  H   10.588524   9.331065  10.627457   9.349493   8.416226
    29  H   10.638346   9.257507  10.996286   9.884752   8.692954
    30  C    2.495928   3.726379   1.454610   2.589901   3.736736
    31  C    3.748876   4.806945   2.463690   3.066631   4.449325
    32  C    2.949723   4.357804   2.516178   3.851848   4.771948
    33  C    4.941897   6.117365   3.772948   4.482010   5.855576
    34  H    4.064036   4.858999   2.675557   2.743796   4.178442
    35  C    4.322538   5.728287   3.772354   5.022656   6.068846
    36  H    2.639335   4.031975   2.757848   4.144624   4.767557
    37  C    5.185975   6.519878   4.299301   5.315520   6.565233
    38  C    6.209629   7.280539   4.941118   5.385352   6.813286
    39  H    4.969088   6.385933   4.648666   5.964084   6.901916
    40  C    6.583679   7.931586   5.718213   6.705809   7.977735
    41  C    7.375460   8.526185   6.177208   6.726166   8.145142
    42  H    6.391494   7.300975   5.037337   5.195301   6.625880
    43  H    7.031638   8.425495   6.336128   7.442148   8.634257
    44  C    7.536883   8.813841   6.506059   7.299713   8.661517
    45  H    8.327738   9.419469   7.077819   7.495831   8.928969
    46  H    8.578155   9.873876   7.577977   8.385775   9.745507
                    6          7          8          9         10
     6  C    0.000000
     7  C    2.348308   0.000000
     8  N    1.391749   1.415880   0.000000
     9  O    3.416842   4.776722   4.616823   0.000000
    10  O    3.509482   1.229441   2.331491   5.955770   0.000000
    11  H    2.144883   2.114950   1.008351   5.525024   2.611097
    12  H    4.599946   4.649849   5.242443   2.605941   5.514140
    13  C    1.455146   3.725929   2.497156   3.790603   4.806549
    14  C    2.486789   4.340912   2.936402   5.177124   5.209070
    15  C    2.492437   4.833744   3.782706   3.199223   6.001115
    16  C    3.792103   5.755410   4.352500   5.962439   6.616007
    17  H    2.736569   4.022984   2.629956   5.874417   4.679720
    18  C    3.752645   6.097344   4.928868   4.299172   7.221589
    19  H    2.696407   4.874755   4.086284   2.177393   6.095531
    20  C    4.297870   6.525452   5.197990   5.599869   7.526999
    21  C    4.970903   6.664166   5.251470   7.376380   7.357191
    22  H    4.622107   6.964655   5.881586   4.411506   8.128592
    23  C    5.717392   7.930641   6.585005   6.792885   8.906588
    24  C    6.201489   8.008657   6.593066   8.275291   8.729522
    25  H    5.083245   6.439775   5.068273   7.862441   6.970572
    26  H    6.324488   8.617748   7.327447   6.867821   9.658894
    27  C    6.517974   8.571274   7.171717   8.019193   9.429841
    28  H    7.106628   8.766910   7.361446   9.331168   9.390827
    29  H    7.588281   9.656812   8.257719   8.930120  10.513684
    30  C    4.869217   3.506737   4.724970   4.802828   3.769064
    31  C    5.317160   3.406932   4.797471   5.968820   3.190239
    32  C    6.036076   4.910370   6.064791   5.214033   5.194240
    33  C    6.728429   4.738178   6.148021   7.234910   4.312170
    34  H    4.792510   2.627725   4.043226   6.076541   2.168043
    35  C    7.278351   5.892548   7.157095   6.580099   5.939526
    36  H    6.121198   5.398473   6.389608   4.676576   5.881570
    37  C    7.616209   5.858857   7.231687   7.511034   5.608910
    38  C    7.491694   5.283343   6.685217   8.446598   4.543313
    39  H    8.169823   6.920275   8.146048   7.104327   7.015679
    40  C    9.002061   7.152847   8.548512   8.902033   6.770773
    41  C    8.861934   6.661027   8.061757   9.660950   5.896954
    42  H    7.115743   4.806267   6.154546   8.508712   3.884918
    43  H    9.742411   8.024602   9.396512   9.303405   7.734768
    44  C    9.544050   7.489076   8.904954   9.864693   6.890236
    45  H    9.534954   7.257326   8.622975  10.581331   6.361927
    46  H   10.628844   8.558743   9.974343  10.906834   7.923716
                   11         12         13         14         15
    11  H    0.000000
    12  H    6.250524   0.000000
    13  C    2.797197   5.603931   0.000000
    14  C    2.729220   6.943558   1.391840   0.000000
    15  C    4.209271   5.505355   1.431435   2.431106   0.000000
    16  C    4.089825   8.019261   2.451908   1.416108   2.826798
    17  H    2.072186   7.336346   2.164039   1.086493   3.429885
    18  C    5.170532   6.757776   2.433984   2.799004   1.372872
    19  H    4.718501   4.629890   2.179091   3.410526   1.085634
    20  C    5.161662   7.943956   2.843032   2.455820   2.440676
    21  C    4.747393   9.363848   3.760468   2.484180   4.250397
    22  H    6.199975   6.991435   3.419269   3.885792   2.130932
    23  C    6.475770   9.233538   4.262397   3.746569   3.748091
    24  C    6.121485  10.434652   4.886846   3.738142   5.078137
    25  H    4.387766   9.634204   4.099349   2.711948   4.882784
    26  H    7.325563   9.409423   4.894169   4.616138   4.089240
    27  C    6.874656  10.375921   5.090353   4.235669   4.874203
    28  H    6.785126  11.439617   5.854736   4.620333   6.139860
    29  H    7.952320  11.345828   6.152183   5.321669   5.842638
    30  C    5.593453   2.797679   6.266810   7.330808   6.784525
    31  C    5.496381   4.172995   6.770169   7.644490   7.522009
    32  C    6.970140   2.730785   7.360831   8.522429   7.678311
    33  C    6.779503   5.177595   8.182506   9.029447   8.932533
    34  H    4.623588   4.694854   6.238558   6.963982   7.156787
    35  C    8.000488   4.056176   8.643949   9.753822   9.025791
    36  H    7.352306   2.073068   7.331051   8.586488   7.443983
    37  C    7.956837   5.140801   9.047035  10.020862   9.626523
    38  C    7.145694   6.537184   8.936976   9.620744   9.837862
    39  H    9.016960   4.505056   9.492180  10.655760   9.761945
    40  C    9.221678   6.474899  10.440655  11.380955  11.043315
    41  C    8.505515   7.588423  10.309574  10.997669  11.188579
    42  H    6.487651   6.869137   8.527972   9.076967   9.547397
    43  H   10.120170   6.772104  11.158853  12.168173  11.659204
    44  C    9.458877   7.561080  10.998780  11.814497  11.741815
    45  H    8.962339   8.597592  10.964306  11.550465  11.925679
    46  H   10.507547   8.555515  12.083724  12.889812  12.826169
                   16         17         18         19         20
    16  C    0.000000
    17  H    2.142620   0.000000
    18  C    2.455038   3.885200   0.000000
    19  H    3.912396   4.326823   2.136884   0.000000
    20  C    1.433873   3.425007   1.423431   3.424656   0.000000
    21  C    1.423857   2.678041   3.753024   5.336030   2.461829
    22  H    3.437431   4.971972   1.086789   2.457425   2.167556
    23  C    2.457820   4.597921   2.493995   4.628403   1.419681
    24  C    2.434938   4.049971   4.245464   6.138975   2.822567
    25  H    2.169383   2.448354   4.621064   5.951346   3.443399
    26  H    3.438835   5.547370   2.721793   4.787561   2.164160
    27  C    2.819815   4.842493   3.748593   5.841827   2.433557
    28  H    3.420571   4.748199   5.331408   7.208002   3.908438
    29  H    3.905765   5.910129   4.631269   6.760627   3.418375
    30  C    8.661303   7.310455   8.155307   6.247044   9.037075
    31  C    9.036840   7.423983   8.888468   7.144963   9.607820
    32  C    9.799565   8.599197   9.024224   6.989008  10.033359
    33  C   10.429067   8.759437  10.300561   8.528755  11.021736
    34  H    8.376002   6.626712   8.495245   6.931791   9.076426
    35  C   11.064601   9.749818  10.378594   8.356890  11.358310
    36  H    9.782233   8.797756   8.743993   6.640148   9.859866
    37  C   11.390857   9.861642  10.998169   9.083286  11.849798
    38  C   11.036463   9.201317  11.184836   9.551229  11.772874
    39  H   11.933143  10.711065  11.091484   9.017144  12.141209
    40  C   12.762345  11.173768  12.415358  10.501893  13.253162
    41  C   12.413516  10.566647  12.541304  10.867724  13.147316
    42  H   10.489580   8.559620  10.860800   9.378384  11.329816
    43  H   13.527924  12.026410  13.023849  11.041374  13.936256
    44  C   13.221177  11.485292  13.111870  11.301057  13.839256
    45  H   12.964107  11.034520  13.259993  11.674853  13.781824
    46  H   14.298235  12.543791  14.196605  12.376690  14.924607
                   21         22         23         24         25
    21  C    0.000000
    22  H    4.624852   0.000000
    23  C    2.810090   2.723270   0.000000
    24  C    1.377731   4.881777   2.427383   0.000000
    25  H    1.087105   5.569663   3.897194   2.143499   0.000000
    26  H    3.896873   2.498431   1.086783   3.416775   4.983976
    27  C    2.424811   4.095991   1.379511   1.418229   3.414627
    28  H    2.139448   5.950612   3.404535   1.085947   2.471729
    29  H    3.401835   4.797802   2.140751   2.170693   4.303714
    30  C    9.800211   8.698602  10.440621  11.064296   9.758373
    31  C   10.040154   9.549312  11.027090  11.364485   9.846696
    32  C   11.005955   9.436645  11.407842  12.226715  11.038003
    33  C   11.399449  10.946995  12.441197  12.735594  11.159332
    34  H    9.284549   9.250004  10.492580  10.634187   9.008908
    35  C   12.229496  10.806943  12.742849  13.479813  12.197846
    36  H   11.060907   9.039477  11.191630  12.216720  11.198634
    37  C   12.450559  11.538049  13.260178  13.756038  12.294297
    38  C   11.877550  11.913464  13.187700  13.242267  11.513611
    39  H   13.138826  11.440636  13.503784  14.360980  13.154830
    40  C   13.789823  12.957059  14.665884  15.109007  13.590304
    41  C   13.244123  13.250791  14.562912  14.611107  12.861037
    42  H   11.234340  11.660370  12.730546  12.609109  10.795097
    43  H   14.607580  13.497190  15.338122  15.905684  14.460134
    44  C   14.147409  13.735516  15.258846  15.497216  13.845092
    45  H   13.707614  14.017371  15.187928  15.083209  13.249046
    46  H   15.210610  14.814551  16.344234  16.564114  14.889644
                   26         27         28         29         30
    26  H    0.000000
    27  C    2.145367   0.000000
    28  H    4.306130   2.171205   0.000000
    29  H    2.473668   1.086008   2.491609   0.000000
    30  C   10.873581  11.356137  11.939355  12.411866   0.000000
    31  C   11.569483  11.817201  12.157873  12.894276   1.393211
    32  C   11.740318  12.411305  13.142642  13.443633   1.430528
    33  C   12.984647  13.218610  13.505034  14.297638   2.447205
    34  H   11.115351  11.186796  11.374861  12.271194   2.151697
    35  C   13.097641  13.717788  14.368941  14.759773   2.439545
    36  H   11.427601  12.276732  13.179172  13.277243   2.191826
    37  C   13.714690  14.132819  14.578525  15.198943   2.844703
    38  C   13.814060  13.853993  13.930627  14.939717   3.753954
    39  H   13.795680  14.530930  15.276088  15.556344   3.424969
    40  C   15.130656  15.519876  15.908991  16.589749   4.263717
    41  C   15.181270  15.231372  15.287776  16.317147   4.881324
    42  H   13.421939  13.307418  13.241406  14.392393   4.085623
    43  H   15.745609  16.249161  16.738142  17.308513   4.899401
    44  C   15.801262  16.020663  16.231933  17.101896   5.087484
    45  H   15.856416  15.782697  15.702960  16.867938   5.848690
    46  H   16.887092  17.100493  17.287558  18.182377   6.149837
                   31         32         33         34         35
    31  C    0.000000
    32  C    2.430773   0.000000
    33  C    1.415793   2.816328   0.000000
    34  H    1.087108   3.421580   2.162704   0.000000
    35  C    2.808235   1.373107   2.453913   3.895341   0.000000
    36  H    3.418953   1.085378   3.901609   4.327141   2.117825
    37  C    2.462059   2.435758   1.433891   3.442673   1.423292
    38  C    2.477783   4.240353   1.424218   2.699185   3.752712
    39  H    3.894948   2.134427   3.437238   4.982055   1.086714
    40  C    3.751162   3.744363   2.458972   4.618771   2.493266
    41  C    3.733206   5.068841   2.434128   4.071131   4.244022
    42  H    2.696960   4.867131   2.166392   2.461302   4.617167
    43  H    4.623803   4.090893   3.440985   5.568174   2.723971
    44  C    4.234445   4.867313   2.818757   4.863266   3.746975
    45  H    4.614206   6.130370   3.420099   4.769207   5.329928
    46  H    5.320525   5.836804   3.904800   5.931117   4.629793
                   36         37         38         39         40
    36  H    0.000000
    37  C    3.408661   0.000000
    38  C    5.325513   2.462371   0.000000
    39  H    2.433188   2.168492   4.626099   0.000000
    40  C    4.609056   1.419391   2.812890   2.724131   0.000000
    41  C    6.123982   2.821304   1.377779   4.882430   2.428733
    42  H    5.939225   3.441456   1.086392   5.567505   3.899262
    43  H    4.768664   2.165957   3.899841   2.502439   1.086951
    44  C    5.823124   2.431636   2.425321   4.096801   1.379755
    45  H    7.193598   3.907125   2.139476   5.951147   3.405289
    46  H    6.740875   3.416499   3.402255   4.798877   2.140169
                   41         42         43         44         45
    41  C    0.000000
    42  H    2.146586   0.000000
    43  H    3.417808   4.986212   0.000000
    44  C    1.418280   3.416617   2.145505   0.000000
    45  H    1.085911   2.477087   4.306187   2.170831   0.000000
    46  H    2.170737   4.306524   2.472338   1.086102   2.490970
                   46
    46  H    0.000000
 Stoichiometry    C26H16N2O2(1-,2)
 Framework group  C1[X(C26H16N2O2)]
 Deg. of freedom   132
 Full point group                 C1      NOp   1
 Largest Abelian subgroup         C1      NOp   1
 Largest concise Abelian subgroup C1      NOp   1
                         Standard orientation:                         
 ---------------------------------------------------------------------
 Center     Atomic      Atomic             Coordinates (Angstroms)
 Number     Number       Type             X           Y           Z
 ---------------------------------------------------------------------
      1          7           0        1.129745    2.228916    0.000105
      2          6           0       -0.287290    2.185855    0.000106
      3          6           0        1.723230    0.971151   -0.000006
      4          6           0        0.681815    0.052851   -0.000050
      5          6           0       -0.570660    0.753481    0.000026
      6          6           0       -1.608894   -0.168609   -0.000013
      7          6           0        0.404941   -1.376508   -0.000144
      8          7           0       -1.010110   -1.424962   -0.000132
      9          8           0       -0.990571    3.191820    0.000212
     10          8           0        1.117529   -2.378378   -0.000250
     11          1           0       -1.492681   -2.310341   -0.000117
     12          1           0        1.614188    3.113349    0.000109
     13          6           0       -3.052873    0.011320    0.000021
     14          6           0       -3.925356   -1.073112    0.000005
     15          6           0       -3.596243    1.335614    0.000062
     16          6           0       -5.330437   -0.896730    0.000042
     17          1           0       -3.553543   -2.094005   -0.000049
     18          6           0       -4.955357    1.529487    0.000101
     19          1           0       -2.921976    2.186476    0.000050
     20          6           0       -5.864301    0.434052    0.000095
     21          6           0       -6.229950   -2.000471    0.000028
     22          1           0       -5.353749    2.540622    0.000132
     23          6           0       -7.273187    0.608794    0.000134
     24          6           0       -7.592644   -1.797476    0.000066
     25          1           0       -5.824448   -3.009116   -0.000014
     26          1           0       -7.675701    1.618289    0.000174
     27          6           0       -8.119392   -0.480696    0.000121
     28          1           0       -8.269464   -2.646708    0.000055
     29          1           0       -9.195383   -0.333531    0.000151
     30          6           0        3.165939    0.785458   -0.000037
     31          6           0        3.697789   -0.502242    0.000025
     32          6           0        4.061208    1.901211   -0.000123
     33          6           0        5.097093   -0.717691   -0.000007
     34          1           0        3.032627   -1.362105    0.000115
     35          6           0        5.421585    1.714673   -0.000156
     36          1           0        3.677903    2.916653   -0.000153
     37          6           0        5.985468    0.407846   -0.000102
     38          6           0        5.647560   -2.031229    0.000055
     39          1           0        6.086838    2.573967   -0.000219
     40          6           0        7.386422    0.179814   -0.000135
     41          6           0        7.012354   -2.219940    0.000021
     42          1           0        4.969881   -2.880345    0.000131
     43          1           0        8.059050    1.033649   -0.000206
     44          6           0        7.889098   -1.105114   -0.000075
     45          1           0        7.422834   -3.225280    0.000069
     46          1           0        8.962990   -1.267513   -0.000101
 ---------------------------------------------------------------------
 Rotational constants (GHZ):      0.5442106      0.0576155      0.0520997
 Standard basis: 6-31+G(d,p) (6D, 7F)
 There are   650 symmetry adapted basis functions of A   symmetry.
 Integral buffers will be    262144 words long.
 Raffenetti 2 integral format.
 Two-electron integral symmetry is turned on.
   650 basis functions,  1072 primitive gaussians,   650 cartesian basis functions
   102 alpha electrons      101 beta electrons
       nuclear repulsion energy      2466.6145673971 Hartrees.
 NAtoms=   46 NActive=   46 NUniq=   46 SFac= 1.00D+00 NAtFMM=   50 NAOKFM=F Big=F
 One-electron integrals computed using PRISM.
 NBasis=   650 RedAO= T  NBF=   650
 NBsUse=   637 1.00D-06 NBFU=   637
 Harris functional with IExCor=  402 diagonalized for initial guess.
 ExpMin= 4.38D-02 ExpMax= 5.48D+03 ExpMxC= 8.25D+02 IAcc=2 IRadAn=         0 AccDes= 0.00D+00
 HarFok:  IExCor=  402 AccDes= 0.00D+00 IRadAn=         0 IDoV= 1
 ScaDFX=  1.000000  1.000000  1.000000  1.000000
 FoFCou: FMM=F IPFlag=           0 FMFlag=      100000 FMFlg1=           0
         NFxFlg=           0 DoJE=T BraDBF=F KetDBF=T FulRan=T
         Omega=  0.000000  0.000000  1.000000  0.000000  0.000000 ICntrl=     500 IOpCl=  0
         NMat0=    1 NMatS0=    1 NMatT0=    0 NMatD0=    1 NMtDS0=    0 NMtDT0=    0
         I1Cent=           4 NGrid=           0.
 Petite list used in FoFCou.
 Initial guess orbital symmetries:
 Alpha Orbitals:
       Occupied  (A) (A) (A) (A) (A) (A) (A) (A) (A) (A) (A) (A)
                 (A) (A) (A) (A) (A) (A) (A) (A) (A) (A) (A) (A)
                 (A) (A) (A) (A) (A) (A) (A) (A) (A) (A) (A) (A)
                 (A) (A) (A) (A) (A) (A) (A) (A) (A) (A) (A) (A)
                 (A) (A) (A) (A) (A) (A) (A) (A) (A) (A) (A) (A)
                 (A) (A) (A) (A) (A) (A) (A) (A) (A) (A) (A) (A)
                 (A) (A) (A) (A) (A) (A) (A) (A) (A) (A) (A) (A)
                 (A) (A) (A) (A) (A) (A) (A) (A) (A) (A) (A) (A)
                 (A) (A) (A) (A) (A) (A)
       Virtual   (A) (A) (A) (A) (A) (A) (A) (A) (A) (A) (A) (A)
                 (A) (A) (A) (A) (A) (A) (A) (A) (A) (A) (A) (A)
                 (A) (A) (A) (A) (A) (A) (A) (A) (A) (A) (A) (A)
                 (A) (A) (A) (A) (A) (A) (A) (A) (A) (A) (A) (A)
                 (A) (A) (A) (A) (A) (A) (A) (A) (A) (A) (A) (A)
                 (A) (A) (A) (A) (A) (A) (A) (A) (A) (A) (A) (A)
                 (A) (A) (A) (A) (A) (A) (A) (A) (A) (A) (A) (A)
                 (A) (A) (A) (A) (A) (A) (A) (A) (A) (A) (A) (A)
                 (A) (A) (A) (A) (A) (A) (A) (A) (A) (A) (A) (A)
                 (A) (A) (A) (A) (A) (A) (A) (A) (A) (A) (A) (A)
                 (A) (A) (A) (A) (A) (A) (A) (A) (A) (A) (A) (A)
                 (A) (A) (A) (A) (A) (A) (A) (A) (A) (A) (A) (A)
                 (A) (A) (A) (A) (A) (A) (A) (A) (A) (A) (A) (A)
                 (A) (A) (A) (A) (A) (A) (A) (A) (A) (A) (A) (A)
                 (A) (A) (A) (A) (A) (A) (A) (A) (A) (A) (A) (A)
                 (A) (A) (A) (A) (A) (A) (A) (A) (A) (A) (A) (A)
                 (A) (A) (A) (A) (A) (A) (A) (A) (A) (A) (A) (A)
                 (A) (A) (A) (A) (A) (A) (A) (A) (A) (A) (A) (A)
                 (A) (A) (A) (A) (A) (A) (A) (A) (A) (A) (A) (A)
                 (A) (A) (A) (A) (A) (A) (A) (A) (A) (A) (A) (A)
                 (A) (A) (A) (A) (A) (A) (A) (A) (A) (A) (A) (A)
                 (A) (A) (A) (A) (A) (A) (A) (A) (A) (A) (A) (A)
                 (A) (A) (A) (A) (A) (A) (A) (A) (A) (A) (A) (A)
                 (A) (A) (A) (A) (A) (A) (A) (A) (A) (A) (A) (A)
                 (A) (A) (A) (A) (A) (A) (A) (A) (A) (A) (A) (A)
                 (A) (A) (A) (A) (A) (A) (A) (A) (A) (A) (A) (A)
                 (A) (A) (A) (A) (A) (A) (A) (A) (A) (A) (A) (A)
                 (A) (A) (A) (A) (A) (A) (A) (A) (A) (A) (A) (A)
                 (A) (A) (A) (A) (A) (A) (A) (A) (A) (A) (A) (A)
                 (A) (A) (A) (A) (A) (A) (A) (A) (A) (A) (A) (A)
                 (A) (A) (A) (A) (A) (A) (A) (A) (A) (A) (A) (A)
                 (A) (A) (A) (A) (A) (A) (A) (A) (A) (A) (A) (A)
                 (A) (A) (A) (A) (A) (A) (A) (A) (A) (A) (A) (A)
                 (A) (A) (A) (A) (A) (A) (A) (A) (A) (A) (A) (A)
                 (A) (A) (A) (A) (A) (A) (A) (A) (A) (A) (A) (A)
                 (A) (A) (A) (A) (A) (A) (A) (A) (A) (A) (A) (A)
                 (A) (A) (A) (A) (A) (A) (A) (A) (A) (A) (A) (A)
                 (A) (A) (A) (A) (A) (A) (A) (A) (A) (A) (A) (A)
                 (A) (A) (A) (A) (A) (A) (A) (A) (A) (A) (A) (A)
                 (A) (A) (A) (A) (A) (A) (A) (A) (A) (A) (A) (A)
                 (A) (A) (A) (A) (A) (A) (A) (A) (A) (A) (A) (A)
                 (A) (A) (A) (A) (A) (A) (A) (A) (A) (A) (A) (A)
                 (A) (A) (A) (A) (A) (A) (A) (A) (A) (A) (A) (A)
                 (A) (A) (A) (A) (A) (A) (A) (A) (A) (A) (A) (A)
                 (A) (A) (A) (A) (A) (A) (A)
 Beta  Orbitals:
       Occupied  (A) (A) (A) (A) (A) (A) (A) (A) (A) (A) (A) (A)
                 (A) (A) (A) (A) (A) (A) (A) (A) (A) (A) (A) (A)
                 (A) (A) (A) (A) (A) (A) (A) (A) (A) (A) (A) (A)
                 (A) (A) (A) (A) (A) (A) (A) (A) (A) (A) (A) (A)
                 (A) (A) (A) (A) (A) (A) (A) (A) (A) (A) (A) (A)
                 (A) (A) (A) (A) (A) (A) (A) (A) (A) (A) (A) (A)
                 (A) (A) (A) (A) (A) (A) (A) (A) (A) (A) (A) (A)
                 (A) (A) (A) (A) (A) (A) (A) (A) (A) (A) (A) (A)
                 (A) (A) (A) (A) (A)
       Virtual   (A) (A) (A) (A) (A) (A) (A) (A) (A) (A) (A) (A)
                 (A) (A) (A) (A) (A) (A) (A) (A) (A) (A) (A) (A)
                 (A) (A) (A) (A) (A) (A) (A) (A) (A) (A) (A) (A)
                 (A) (A) (A) (A) (A) (A) (A) (A) (A) (A) (A) (A)
                 (A) (A) (A) (A) (A) (A) (A) (A) (A) (A) (A) (A)
                 (A) (A) (A) (A) (A) (A) (A) (A) (A) (A) (A) (A)
                 (A) (A) (A) (A) (A) (A) (A) (A) (A) (A) (A) (A)
                 (A) (A) (A) (A) (A) (A) (A) (A) (A) (A) (A) (A)
                 (A) (A) (A) (A) (A) (A) (A) (A) (A) (A) (A) (A)
                 (A) (A) (A) (A) (A) (A) (A) (A) (A) (A) (A) (A)
                 (A) (A) (A) (A) (A) (A) (A) (A) (A) (A) (A) (A)
                 (A) (A) (A) (A) (A) (A) (A) (A) (A) (A) (A) (A)
                 (A) (A) (A) (A) (A) (A) (A) (A) (A) (A) (A) (A)
                 (A) (A) (A) (A) (A) (A) (A) (A) (A) (A) (A) (A)
                 (A) (A) (A) (A) (A) (A) (A) (A) (A) (A) (A) (A)
                 (A) (A) (A) (A) (A) (A) (A) (A) (A) (A) (A) (A)
                 (A) (A) (A) (A) (A) (A) (A) (A) (A) (A) (A) (A)
                 (A) (A) (A) (A) (A) (A) (A) (A) (A) (A) (A) (A)
                 (A) (A) (A) (A) (A) (A) (A) (A) (A) (A) (A) (A)
                 (A) (A) (A) (A) (A) (A) (A) (A) (A) (A) (A) (A)
                 (A) (A) (A) (A) (A) (A) (A) (A) (A) (A) (A) (A)
                 (A) (A) (A) (A) (A) (A) (A) (A) (A) (A) (A) (A)
                 (A) (A) (A) (A) (A) (A) (A) (A) (A) (A) (A) (A)
                 (A) (A) (A) (A) (A) (A) (A) (A) (A) (A) (A) (A)
                 (A) (A) (A) (A) (A) (A) (A) (A) (A) (A) (A) (A)
                 (A) (A) (A) (A) (A) (A) (A) (A) (A) (A) (A) (A)
                 (A) (A) (A) (A) (A) (A) (A) (A) (A) (A) (A) (A)
                 (A) (A) (A) (A) (A) (A) (A) (A) (A) (A) (A) (A)
                 (A) (A) (A) (A) (A) (A) (A) (A) (A) (A) (A) (A)
                 (A) (A) (A) (A) (A) (A) (A) (A) (A) (A) (A) (A)
                 (A) (A) (A) (A) (A) (A) (A) (A) (A) (A) (A) (A)
                 (A) (A) (A) (A) (A) (A) (A) (A) (A) (A) (A) (A)
                 (A) (A) (A) (A) (A) (A) (A) (A) (A) (A) (A) (A)
                 (A) (A) (A) (A) (A) (A) (A) (A) (A) (A) (A) (A)
                 (A) (A) (A) (A) (A) (A) (A) (A) (A) (A) (A) (A)
                 (A) (A) (A) (A) (A) (A) (A) (A) (A) (A) (A) (A)
                 (A) (A) (A) (A) (A) (A) (A) (A) (A) (A) (A) (A)
                 (A) (A) (A) (A) (A) (A) (A) (A) (A) (A) (A) (A)
                 (A) (A) (A) (A) (A) (A) (A) (A) (A) (A) (A) (A)
                 (A) (A) (A) (A) (A) (A) (A) (A) (A) (A) (A) (A)
                 (A) (A) (A) (A) (A) (A) (A) (A) (A) (A) (A) (A)
                 (A) (A) (A) (A) (A) (A) (A) (A) (A) (A) (A) (A)
                 (A) (A) (A) (A) (A) (A) (A) (A) (A) (A) (A) (A)
                 (A) (A) (A) (A) (A) (A) (A) (A) (A) (A) (A) (A)
                 (A) (A) (A) (A) (A) (A) (A) (A)
 The electronic state of the initial guess is 2-A.
 Initial guess <Sx>= 0.0000 <Sy>= 0.0000 <Sz>= 0.5000 <S**2>= 0.7500 S= 0.5000
 Requested convergence on RMS density matrix=1.00D-08 within 128 cycles.
 Requested convergence on MAX density matrix=1.00D-06.
 Requested convergence on             energy=1.00D-06.
 No special actions if energy rises.
 DSYEVD returned Info=        1275 IAlg= 4 N=   637 NDim=   637 NE2=       50040 trying DSYEV.
 Restarting incremental Fock formation.
 SCF Done:  E(UB3LYP) =  -1260.54501865     A.U. after   30 cycles
             Convg  =    0.9110D-08             -V/T =  2.0093
 <Sx>= 0.0000 <Sy>= 0.0000 <Sz>= 0.5000 <S**2>= 0.7700 S= 0.5099
 <L.S>= 0.000000000000E+00
 Annihilation of the first spin contaminant:
 S**2 before annihilation     0.7700,   after     0.7503

 **********************************************************************

            Population analysis using the SCF density.

 **********************************************************************

 Orbital symmetries:
 Alpha Orbitals:
       Occupied  (A) (A) (A) (A) (A) (A) (A) (A) (A) (A) (A) (A)
                 (A) (A) (A) (A) (A) (A) (A) (A) (A) (A) (A) (A)
                 (A) (A) (A) (A) (A) (A) (A) (A) (A) (A) (A) (A)
                 (A) (A) (A) (A) (A) (A) (A) (A) (A) (A) (A) (A)
                 (A) (A) (A) (A) (A) (A) (A) (A) (A) (A) (A) (A)
                 (A) (A) (A) (A) (A) (A) (A) (A) (A) (A) (A) (A)
                 (A) (A) (A) (A) (A) (A) (A) (A) (A) (A) (A) (A)
                 (A) (A) (A) (A) (A) (A) (A) (A) (A) (A) (A) (A)
                 (A) (A) (A) (A) (A) (A)
       Virtual   (A) (A) (A) (A) (A) (A) (A) (A) (A) (A) (A) (A)
                 (A) (A) (A) (A) (A) (A) (A) (A) (A) (A) (A) (A)
                 (A) (A) (A) (A) (A) (A) (A) (A) (A) (A) (A) (A)
                 (A) (A) (A) (A) (A) (A) (A) (A) (A) (A) (A) (A)
                 (A) (A) (A) (A) (A) (A) (A) (A) (A) (A) (A) (A)
                 (A) (A) (A) (A) (A) (A) (A) (A) (A) (A) (A) (A)
                 (A) (A) (A) (A) (A) (A) (A) (A) (A) (A) (A) (A)
                 (A) (A) (A) (A) (A) (A) (A) (A) (A) (A) (A) (A)
                 (A) (A) (A) (A) (A) (A) (A) (A) (A) (A) (A) (A)
                 (A) (A) (A) (A) (A) (A) (A) (A) (A) (A) (A) (A)
                 (A) (A) (A) (A) (A) (A) (A) (A) (A) (A) (A) (A)
                 (A) (A) (A) (A) (A) (A) (A) (A) (A) (A) (A) (A)
                 (A) (A) (A) (A) (A) (A) (A) (A) (A) (A) (A) (A)
                 (A) (A) (A) (A) (A) (A) (A) (A) (A) (A) (A) (A)
                 (A) (A) (A) (A) (A) (A) (A) (A) (A) (A) (A) (A)
                 (A) (A) (A) (A) (A) (A) (A) (A) (A) (A) (A) (A)
                 (A) (A) (A) (A) (A) (A) (A) (A) (A) (A) (A) (A)
                 (A) (A) (A) (A) (A) (A) (A) (A) (A) (A) (A) (A)
                 (A) (A) (A) (A) (A) (A) (A) (A) (A) (A) (A) (A)
                 (A) (A) (A) (A) (A) (A) (A) (A) (A) (A) (A) (A)
                 (A) (A) (A) (A) (A) (A) (A) (A) (A) (A) (A) (A)
                 (A) (A) (A) (A) (A) (A) (A) (A) (A) (A) (A) (A)
                 (A) (A) (A) (A) (A) (A) (A) (A) (A) (A) (A) (A)
                 (A) (A) (A) (A) (A) (A) (A) (A) (A) (A) (A) (A)
                 (A) (A) (A) (A) (A) (A) (A) (A) (A) (A) (A) (A)
                 (A) (A) (A) (A) (A) (A) (A) (A) (A) (A) (A) (A)
                 (A) (A) (A) (A) (A) (A) (A) (A) (A) (A) (A) (A)
                 (A) (A) (A) (A) (A) (A) (A) (A) (A) (A) (A) (A)
                 (A) (A) (A) (A) (A) (A) (A) (A) (A) (A) (A) (A)
                 (A) (A) (A) (A) (A) (A) (A) (A) (A) (A) (A) (A)
                 (A) (A) (A) (A) (A) (A) (A) (A) (A) (A) (A) (A)
                 (A) (A) (A) (A) (A) (A) (A) (A) (A) (A) (A) (A)
                 (A) (A) (A) (A) (A) (A) (A) (A) (A) (A) (A) (A)
                 (A) (A) (A) (A) (A) (A) (A) (A) (A) (A) (A) (A)
                 (A) (A) (A) (A) (A) (A) (A) (A) (A) (A) (A) (A)
                 (A) (A) (A) (A) (A) (A) (A) (A) (A) (A) (A) (A)
                 (A) (A) (A) (A) (A) (A) (A) (A) (A) (A) (A) (A)
                 (A) (A) (A) (A) (A) (A) (A) (A) (A) (A) (A) (A)
                 (A) (A) (A) (A) (A) (A) (A) (A) (A) (A) (A) (A)
                 (A) (A) (A) (A) (A) (A) (A) (A) (A) (A) (A) (A)
                 (A) (A) (A) (A) (A) (A) (A) (A) (A) (A) (A) (A)
                 (A) (A) (A) (A) (A) (A) (A) (A) (A) (A) (A) (A)
                 (A) (A) (A) (A) (A) (A) (A) (A) (A) (A) (A) (A)
                 (A) (A) (A) (A) (A) (A) (A) (A) (A) (A) (A) (A)
                 (A) (A) (A) (A) (A) (A) (A)
 Beta  Orbitals:
       Occupied  (A) (A) (A) (A) (A) (A) (A) (A) (A) (A) (A) (A)
                 (A) (A) (A) (A) (A) (A) (A) (A) (A) (A) (A) (A)
                 (A) (A) (A) (A) (A) (A) (A) (A) (A) (A) (A) (A)
                 (A) (A) (A) (A) (A) (A) (A) (A) (A) (A) (A) (A)
                 (A) (A) (A) (A) (A) (A) (A) (A) (A) (A) (A) (A)
                 (A) (A) (A) (A) (A) (A) (A) (A) (A) (A) (A) (A)
                 (A) (A) (A) (A) (A) (A) (A) (A) (A) (A) (A) (A)
                 (A) (A) (A) (A) (A) (A) (A) (A) (A) (A) (A) (A)
                 (A) (A) (A) (A) (A)
       Virtual   (A) (A) (A) (A) (A) (A) (A) (A) (A) (A) (A) (A)
                 (A) (A) (A) (A) (A) (A) (A) (A) (A) (A) (A) (A)
                 (A) (A) (A) (A) (A) (A) (A) (A) (A) (A) (A) (A)
                 (A) (A) (A) (A) (A) (A) (A) (A) (A) (A) (A) (A)
                 (A) (A) (A) (A) (A) (A) (A) (A) (A) (A) (A) (A)
                 (A) (A) (A) (A) (A) (A) (A) (A) (A) (A) (A) (A)
                 (A) (A) (A) (A) (A) (A) (A) (A) (A) (A) (A) (A)
                 (A) (A) (A) (A) (A) (A) (A) (A) (A) (A) (A) (A)
                 (A) (A) (A) (A) (A) (A) (A) (A) (A) (A) (A) (A)
                 (A) (A) (A) (A) (A) (A) (A) (A) (A) (A) (A) (A)
                 (A) (A) (A) (A) (A) (A) (A) (A) (A) (A) (A) (A)
                 (A) (A) (A) (A) (A) (A) (A) (A) (A) (A) (A) (A)
                 (A) (A) (A) (A) (A) (A) (A) (A) (A) (A) (A) (A)
                 (A) (A) (A) (A) (A) (A) (A) (A) (A) (A) (A) (A)
                 (A) (A) (A) (A) (A) (A) (A) (A) (A) (A) (A) (A)
                 (A) (A) (A) (A) (A) (A) (A) (A) (A) (A) (A) (A)
                 (A) (A) (A) (A) (A) (A) (A) (A) (A) (A) (A) (A)
                 (A) (A) (A) (A) (A) (A) (A) (A) (A) (A) (A) (A)
                 (A) (A) (A) (A) (A) (A) (A) (A) (A) (A) (A) (A)
                 (A) (A) (A) (A) (A) (A) (A) (A) (A) (A) (A) (A)
                 (A) (A) (A) (A) (A) (A) (A) (A) (A) (A) (A) (A)
                 (A) (A) (A) (A) (A) (A) (A) (A) (A) (A) (A) (A)
                 (A) (A) (A) (A) (A) (A) (A) (A) (A) (A) (A) (A)
                 (A) (A) (A) (A) (A) (A) (A) (A) (A) (A) (A) (A)
                 (A) (A) (A) (A) (A) (A) (A) (A) (A) (A) (A) (A)
                 (A) (A) (A) (A) (A) (A) (A) (A) (A) (A) (A) (A)
                 (A) (A) (A) (A) (A) (A) (A) (A) (A) (A) (A) (A)
                 (A) (A) (A) (A) (A) (A) (A) (A) (A) (A) (A) (A)
                 (A) (A) (A) (A) (A) (A) (A) (A) (A) (A) (A) (A)
                 (A) (A) (A) (A) (A) (A) (A) (A) (A) (A) (A) (A)
                 (A) (A) (A) (A) (A) (A) (A) (A) (A) (A) (A) (A)
                 (A) (A) (A) (A) (A) (A) (A) (A) (A) (A) (A) (A)
                 (A) (A) (A) (A) (A) (A) (A) (A) (A) (A) (A) (A)
                 (A) (A) (A) (A) (A) (A) (A) (A) (A) (A) (A) (A)
                 (A) (A) (A) (A) (A) (A) (A) (A) (A) (A) (A) (A)
                 (A) (A) (A) (A) (A) (A) (A) (A) (A) (A) (A) (A)
                 (A) (A) (A) (A) (A) (A) (A) (A) (A) (A) (A) (A)
                 (A) (A) (A) (A) (A) (A) (A) (A) (A) (A) (A) (A)
                 (A) (A) (A) (A) (A) (A) (A) (A) (A) (A) (A) (A)
                 (A) (A) (A) (A) (A) (A) (A) (A) (A) (A) (A) (A)
                 (A) (A) (A) (A) (A) (A) (A) (A) (A) (A) (A) (A)
                 (A) (A) (A) (A) (A) (A) (A) (A) (A) (A) (A) (A)
                 (A) (A) (A) (A) (A) (A) (A) (A) (A) (A) (A) (A)
                 (A) (A) (A) (A) (A) (A) (A) (A) (A) (A) (A) (A)
                 (A) (A) (A) (A) (A) (A) (A) (A)
 The electronic state is 2-A.
 Alpha  occ. eigenvalues --  -19.00887 -19.00807 -14.26523 -14.26362 -10.17518
 Alpha  occ. eigenvalues --  -10.17459 -10.12594 -10.12471 -10.11092 -10.11062
 Alpha  occ. eigenvalues --  -10.11052 -10.11031 -10.10948 -10.10896 -10.10871
 Alpha  occ. eigenvalues --  -10.10854 -10.10816 -10.10805 -10.10777 -10.10733
 Alpha  occ. eigenvalues --  -10.10729 -10.10696 -10.10661 -10.10434 -10.09678
 Alpha  occ. eigenvalues --  -10.09389 -10.09066 -10.08472 -10.06955 -10.06796
 Alpha  occ. eigenvalues --   -0.92713  -0.92231  -0.85303  -0.84020  -0.78505
 Alpha  occ. eigenvalues --   -0.78370  -0.73649  -0.73367  -0.68974  -0.68573
 Alpha  occ. eigenvalues --   -0.68367  -0.66612  -0.66211  -0.63861  -0.63350
 Alpha  occ. eigenvalues --   -0.60307  -0.57612  -0.55858  -0.53725  -0.53114
 Alpha  occ. eigenvalues --   -0.52183  -0.51067  -0.50790  -0.50639  -0.45883
 Alpha  occ. eigenvalues --   -0.43479  -0.43169  -0.42486  -0.42337  -0.41827
 Alpha  occ. eigenvalues --   -0.40859  -0.40297  -0.37042  -0.36510  -0.36209
 Alpha  occ. eigenvalues --   -0.35891  -0.35079  -0.34556  -0.34532  -0.33465
 Alpha  occ. eigenvalues --   -0.32850  -0.32781  -0.32531  -0.32294  -0.31934
 Alpha  occ. eigenvalues --   -0.31152  -0.31011  -0.30479  -0.30259  -0.30029
 Alpha  occ. eigenvalues --   -0.28203  -0.28057  -0.26509  -0.26084  -0.25520
 Alpha  occ. eigenvalues --   -0.25028  -0.24963  -0.24137  -0.24040  -0.22212
 Alpha  occ. eigenvalues --   -0.21884  -0.19865  -0.19785  -0.16033  -0.15881
 Alpha  occ. eigenvalues --   -0.15798  -0.14413  -0.14154  -0.13476  -0.13255
 Alpha  occ. eigenvalues --   -0.08520  -0.02275
 Alpha virt. eigenvalues --    0.03888   0.04961   0.06433   0.07495   0.07569
 Alpha virt. eigenvalues --    0.08387   0.08542   0.08558   0.09373   0.09471
 Alpha virt. eigenvalues --    0.09795   0.09834   0.10895   0.11024   0.11861
 Alpha virt. eigenvalues --    0.11878   0.12647   0.13188   0.13346   0.13402
 Alpha virt. eigenvalues --    0.13747   0.14044   0.14083   0.14570   0.14591
 Alpha virt. eigenvalues --    0.15070   0.15090   0.16047   0.16130   0.16535
 Alpha virt. eigenvalues --    0.16874   0.17559   0.17741   0.17790   0.18424
 Alpha virt. eigenvalues --    0.18868   0.18875   0.19204   0.19743   0.19836
 Alpha virt. eigenvalues --    0.20218   0.20436   0.20638   0.20720   0.21310
 Alpha virt. eigenvalues --    0.21566   0.22153   0.22453   0.22654   0.23012
 Alpha virt. eigenvalues --    0.23125   0.23331   0.23822   0.23974   0.24317
 Alpha virt. eigenvalues --    0.24469   0.24894   0.25286   0.25297   0.25523
 Alpha virt. eigenvalues --    0.25651   0.25883   0.25981   0.26145   0.26690
 Alpha virt. eigenvalues --    0.26924   0.27352   0.27818   0.27915   0.28027
 Alpha virt. eigenvalues --    0.28139   0.28588   0.28765   0.28936   0.29239
 Alpha virt. eigenvalues --    0.29257   0.29572   0.29906   0.30090   0.30130
 Alpha virt. eigenvalues --    0.30814   0.31117   0.31197   0.31417   0.31642
 Alpha virt. eigenvalues --    0.31827   0.32006   0.32180   0.32583   0.32817
 Alpha virt. eigenvalues --    0.32944   0.33078   0.33404   0.33745   0.33952
 Alpha virt. eigenvalues --    0.34431   0.34626   0.34714   0.34841   0.35196
 Alpha virt. eigenvalues --    0.35387   0.35730   0.35779   0.35903   0.35998
 Alpha virt. eigenvalues --    0.36130   0.36787   0.36902   0.37083   0.37379
 Alpha virt. eigenvalues --    0.37623   0.37740   0.38048   0.38377   0.39011
 Alpha virt. eigenvalues --    0.39166   0.39687   0.40039   0.40150   0.40633
 Alpha virt. eigenvalues --    0.41241   0.41315   0.41920   0.42022   0.42372
 Alpha virt. eigenvalues --    0.43274   0.43390   0.43658   0.43723   0.44086
 Alpha virt. eigenvalues --    0.44253   0.44818   0.44931   0.45066   0.45260
 Alpha virt. eigenvalues --    0.46259   0.46873   0.47132   0.47777   0.48012
 Alpha virt. eigenvalues --    0.48569   0.49291   0.50249   0.50805   0.51039
 Alpha virt. eigenvalues --    0.52050   0.52469   0.52868   0.53389   0.55505
 Alpha virt. eigenvalues --    0.55815   0.56559   0.57506   0.57903   0.59810
 Alpha virt. eigenvalues --    0.60614   0.61239   0.62335   0.62578   0.63066
 Alpha virt. eigenvalues --    0.63324   0.63620   0.65968   0.67865   0.70080
 Alpha virt. eigenvalues --    0.70281   0.71504   0.72323   0.74320   0.74470
 Alpha virt. eigenvalues --    0.75197   0.75267   0.76323   0.77587   0.78100
 Alpha virt. eigenvalues --    0.78252   0.78637   0.78936   0.79134   0.80596
 Alpha virt. eigenvalues --    0.80674   0.81119   0.81497   0.81846   0.81956
 Alpha virt. eigenvalues --    0.82044   0.82231   0.82351   0.82623   0.83103
 Alpha virt. eigenvalues --    0.83836   0.83859   0.84376   0.85003   0.85584
 Alpha virt. eigenvalues --    0.85768   0.85770   0.86035   0.86383   0.86681
 Alpha virt. eigenvalues --    0.86713   0.87481   0.87546   0.88890   0.89138
 Alpha virt. eigenvalues --    0.89366   0.90516   0.91904   0.91947   0.92643
 Alpha virt. eigenvalues --    0.93175   0.93970   0.94938   0.95506   0.96109
 Alpha virt. eigenvalues --    0.96507   0.96617   0.96930   0.97018   0.98505
 Alpha virt. eigenvalues --    0.98904   0.99243   0.99792   1.00095   1.01307
 Alpha virt. eigenvalues --    1.01664   1.03089   1.04676   1.05076   1.06894
 Alpha virt. eigenvalues --    1.08141   1.08206   1.08627   1.09047   1.10083
 Alpha virt. eigenvalues --    1.10616   1.10972   1.11169   1.13557   1.13948
 Alpha virt. eigenvalues --    1.15672   1.15995   1.17431   1.17791   1.18675
 Alpha virt. eigenvalues --    1.19937   1.20154   1.21255   1.22390   1.22774
 Alpha virt. eigenvalues --    1.23841   1.25152   1.25772   1.26418   1.26732
 Alpha virt. eigenvalues --    1.27929   1.28439   1.28579   1.28759   1.29789
 Alpha virt. eigenvalues --    1.30757   1.31292   1.32221   1.32517   1.32696
 Alpha virt. eigenvalues --    1.33158   1.33345   1.34090   1.34556   1.34730
 Alpha virt. eigenvalues --    1.36382   1.37180   1.37846   1.38037   1.39373
 Alpha virt. eigenvalues --    1.39754   1.40537   1.40943   1.41776   1.42230
 Alpha virt. eigenvalues --    1.42394   1.42413   1.42980   1.43327   1.43962
 Alpha virt. eigenvalues --    1.44558   1.44623   1.45314   1.46210   1.46650
 Alpha virt. eigenvalues --    1.47062   1.47378   1.47546   1.48141   1.48605
 Alpha virt. eigenvalues --    1.49365   1.49426   1.50026   1.50056   1.50450
 Alpha virt. eigenvalues --    1.51130   1.51473   1.52982   1.53031   1.53327
 Alpha virt. eigenvalues --    1.54534   1.54750   1.54850   1.56134   1.57606
 Alpha virt. eigenvalues --    1.58833   1.61458   1.62752   1.64394   1.65513
 Alpha virt. eigenvalues --    1.66688   1.67474   1.69101   1.71670   1.73150
 Alpha virt. eigenvalues --    1.74345   1.75012   1.78539   1.85338   1.87051
 Alpha virt. eigenvalues --    1.87999   1.88334   1.88626   1.88637   1.89350
 Alpha virt. eigenvalues --    1.90067   1.90856   1.91307   1.91360   1.91669
 Alpha virt. eigenvalues --    1.93219   1.93796   1.94847   1.95449   1.96879
 Alpha virt. eigenvalues --    1.98211   1.98531   1.99241   1.99254   1.99539
 Alpha virt. eigenvalues --    2.00008   2.00314   2.00916   2.01471   2.01831
 Alpha virt. eigenvalues --    2.02097   2.03552   2.03672   2.04161   2.04382
 Alpha virt. eigenvalues --    2.05270   2.05468   2.06415   2.08022   2.08830
 Alpha virt. eigenvalues --    2.08849   2.10191   2.10473   2.10842   2.12548
 Alpha virt. eigenvalues --    2.12739   2.12973   2.13149   2.13565   2.14566
 Alpha virt. eigenvalues --    2.15447   2.17146   2.18180   2.19553   2.20127
 Alpha virt. eigenvalues --    2.21645   2.23464   2.23657   2.24710   2.26413
 Alpha virt. eigenvalues --    2.27040   2.27504   2.29148   2.31248   2.31686
 Alpha virt. eigenvalues --    2.31747   2.32369   2.32900   2.34471   2.34623
 Alpha virt. eigenvalues --    2.37957   2.38081   2.39391   2.39583   2.40051
 Alpha virt. eigenvalues --    2.41316   2.43136   2.45099   2.45288   2.46217
 Alpha virt. eigenvalues --    2.46291   2.46446   2.46913   2.47001   2.47490
 Alpha virt. eigenvalues --    2.49051   2.50182   2.50458   2.51315   2.51322
 Alpha virt. eigenvalues --    2.52113   2.53509   2.54418   2.55668   2.56968
 Alpha virt. eigenvalues --    2.57486   2.58128   2.58586   2.58960   2.60299
 Alpha virt. eigenvalues --    2.61858   2.62896   2.63614   2.64070   2.65175
 Alpha virt. eigenvalues --    2.65943   2.66045   2.66239   2.67639   2.68141
 Alpha virt. eigenvalues --    2.68633   2.69108   2.69398   2.69707   2.70232
 Alpha virt. eigenvalues --    2.71200   2.71408   2.72798   2.73303   2.74193
 Alpha virt. eigenvalues --    2.75342   2.75601   2.76350   2.78599   2.79216
 Alpha virt. eigenvalues --    2.80195   2.80609   2.81997   2.82559   2.83079
 Alpha virt. eigenvalues --    2.83449   2.84324   2.85185   2.85969   2.89681
 Alpha virt. eigenvalues --    2.89864   2.90285   2.91240   2.92829   2.94192
 Alpha virt. eigenvalues --    2.97052   2.98544   2.99097   3.02392   3.05364
 Alpha virt. eigenvalues --    3.06713   3.09510   3.09821   3.10873   3.13570
 Alpha virt. eigenvalues --    3.14651   3.16841   3.18738   3.19062   3.19714
 Alpha virt. eigenvalues --    3.21191   3.23471   3.25583   3.27741   3.28553
 Alpha virt. eigenvalues --    3.28961   3.32982   3.35174   3.35374   3.37161
 Alpha virt. eigenvalues --    3.38569   3.39562   3.40766   3.41498   3.45040
 Alpha virt. eigenvalues --    3.46562   3.47635   3.48223   3.53765   3.58165
 Alpha virt. eigenvalues --    3.59088   3.59419   3.62177   3.62849   3.68895
 Alpha virt. eigenvalues --    3.70769   3.85551   3.86139   3.97251   3.97573
 Alpha virt. eigenvalues --    4.35540   4.36157   4.38939   4.40788   4.41659
 Alpha virt. eigenvalues --    4.42664   4.43491   4.44807   4.46162   4.46887
 Alpha virt. eigenvalues --    4.47729   4.48952   4.52334   4.54066   4.55903
 Alpha virt. eigenvalues --    4.56257   4.56840   4.58526   4.60032   4.65281
 Alpha virt. eigenvalues --    4.65979   4.69860   4.74168   4.80084   4.87640
 Alpha virt. eigenvalues --    4.93056   5.03217   5.05041   5.18067   5.26648
  Beta  occ. eigenvalues --  -19.00698 -19.00652 -14.26547 -14.26384 -10.17440
  Beta  occ. eigenvalues --  -10.17400 -10.12233 -10.12139 -10.11107 -10.11104
  Beta  occ. eigenvalues --  -10.11088 -10.10992 -10.10990 -10.10891 -10.10848
  Beta  occ. eigenvalues --  -10.10839 -10.10827 -10.10774 -10.10770 -10.10761
  Beta  occ. eigenvalues --  -10.10703 -10.10641 -10.10607 -10.10347 -10.09699
  Beta  occ. eigenvalues --  -10.09176 -10.09032 -10.08255 -10.06991 -10.06847
  Beta  occ. eigenvalues --   -0.92433  -0.91959  -0.85055  -0.83790  -0.78403
  Beta  occ. eigenvalues --   -0.78266  -0.73543  -0.73244  -0.68867  -0.68431
  Beta  occ. eigenvalues --   -0.68277  -0.66409  -0.66053  -0.63727  -0.63217
  Beta  occ. eigenvalues --   -0.59944  -0.57080  -0.55736  -0.53638  -0.53046
  Beta  occ. eigenvalues --   -0.52100  -0.50943  -0.50695  -0.50523  -0.45773
  Beta  occ. eigenvalues --   -0.43369  -0.43075  -0.42406  -0.42201  -0.41758
  Beta  occ. eigenvalues --   -0.40780  -0.40226  -0.36944  -0.36415  -0.36138
  Beta  occ. eigenvalues --   -0.35842  -0.34962  -0.34497  -0.33868  -0.33392
  Beta  occ. eigenvalues --   -0.32787  -0.32693  -0.32475  -0.32228  -0.31854
  Beta  occ. eigenvalues --   -0.30850  -0.30592  -0.30335  -0.29958  -0.29615
[...]
 27,-0.00015646,0.00000008,-0.00013266,0.00007930,0.00000010,0.00011507
 ,0.00004535,-0.00000001,-0.00002022,0.00010023,-0.00000008,-0.00010739
 ,0.00004761,0.00000012,0.00010194,-0.00011663,0.00000004,-0.00000200,-
 0.00000753,-0.00000003,-0.00004110,0.00011578,-0.00000006,-0.00015310,
 0.00000744,-0.00000007,0.00000380,0.00000408,-0.00000003,-0.00001507,-
 0.00000420,-0.00000001,0.00013415,0.00001841,-0.00000002,-0.00007230,-
 0.00003522,-0.00000006,-0.00002225,0.00000572,0.00000003,0.00005653,-0
 .00001364,0.00000005,0.00000093,-0.00000086,0.00000002,0.00002992,0.00
 001213,0.,0.00000100,-0.00000185,0.,-0.00006196,0.00000585,0.,-0.00001
 025,-0.00000610,-0.00000006,-0.00000353,0.00000450,0.,0.00005474,0.000
 01076,-0.00000004,-0.00001103,0.00001483,0.,0.00000223,-0.00000171,0.0
 0000002,-0.00000099,0.00000496,0.00000002,-0.00003949,-0.00003508,-0.0
 0000001,-0.00000411,-0.00000374,0.00000002,-0.00000482,-0.00000049,0.0
 0000003,0.00041920,-0.00010493,-0.00000007,-0.00050556,-0.00182180,0.0
 0000003,-0.00006479,0.00035603,0.00000003,-0.00452368,0.00322164,-0.00
 000005,-0.00040920,0.00021563,0.,0.00156893,-0.00206007,-0.00000003,-0
 .00004331,0.00003254,0.,-0.01489341,-0.02675284,-0.00000058,-0.0006205
 1,0.00078414,0.00000001,-0.00001536,0.00135023,0.00000003,-0.15872307,
 -0.13067018,-0.00000314,0.00004576,0.00253161,0.,0.00006576,-0.0001567
 9,0.00000003,0.16602013,0.00004019,-0.00005678,0.00000005,0.00001830,-
 0.00026786,-0.00000004,-0.00028633,-0.00000753,-0.00000002,0.00009396,
 0.00005723,0.00000002,0.00003312,0.00017209,-0.00000002,-0.00023718,0.
 00005602,0.00000011,-0.00004734,-0.00000747,0.00000003,0.00006186,-0.0
 0005511,-0.00000007,-0.00009600,0.00019195,-0.00000002,0.00000007,-0.0
 0003346,-0.00000003,0.00000245,0.00000576,0.,0.00001226,-0.00001210,0.
 ,0.00024809,0.00001889,-0.00000004,-0.00012575,-0.00006293,0.00000007,
 -0.00004250,0.00001815,-0.00000017,0.00009121,-0.00002471,0.00000011,0
 .00000104,-0.00000330,0.,0.00005563,0.00001916,0.00000005,0.00000706,-
 0.00000014,0.,-0.00010354,0.00000727,-0.00000011,-0.00001680,-0.000007
 56,0.00000004,-0.00000456,0.00000707,0.,0.00008937,0.00001617,-0.00000
 003,-0.00001751,0.00002454,-0.00000002,0.00000374,-0.00000324,0.000000
 01,-0.00000133,0.00000816,0.00000001,-0.00006417,-0.00005681,0.,-0.000
 00704,-0.00000660,0.00000001,-0.00000821,-0.00000071,0.00000001,0.0004
 6132,0.00019781,0.00000004,0.00013432,0.00009007,-0.00000004,-0.000627
 00,0.00007832,-0.00000009,0.00166071,0.00112190,0.00000011,0.00002806,
 0.00001395,0.,0.00162001,0.00074195,0.00000019,-0.00005811,0.00002303,
 0.,0.00256060,0.00489508,-0.00000017,0.00054948,0.00022901,0.00000001,
 -0.00050352,0.00030312,0.,-0.13002750,-0.22960887,-0.00000433,0.004233
 79,-0.00374076,-0.00000015,-0.00012361,-0.00001603,0.00000003,0.141941
 49,0.24405928,0.00000038,-0.00000031,0.00000061,-0.00000041,-0.0000005
 4,0.00000280,-0.00000008,0.00000041,0.00004854,-0.00000041,-0.00000019
 ,-0.00003574,0.00000069,0.00000069,-0.00002350,-0.00000083,0.00000026,
 0.00000523,0.00000023,-0.00000044,0.00000405,0.00000029,-0.00000036,0.
 00000392,-0.00000004,0.00000010,-0.00000818,-0.00000038,0.00000047,-0.
 00001737,0.00000002,-0.00000002,0.00000351,0.00000003,-0.00000003,0.00
 001674,-0.00000023,0.00000018,0.00000398,-0.00000040,-0.00000006,-0.00
 000384,0.00000009,-0.00000021,-0.00000089,0.00000034,-0.00000029,0.000
 00054,0.00000002,-0.00000002,0.00000112,0.00000019,0.00000025,-0.00000
 033,-0.00000002,-0.00000004,0.00000118,0.00000011,0.00000023,0.0000001
 5,0.00000007,-0.00000014,-0.00000032,0.,0.00000001,0.00000064,0.000000
 37,0.00000006,-0.00000084,-0.00000014,0.00000015,-0.00000079,-0.000000
 02,-0.00000004,0.00000053,0.00000003,0.00000003,0.00000044,-0.00000019
 ,-0.00000016,-0.00000046,0.,-0.00000003,0.00000038,0.00000001,0.,0.000
 00034,0.00000085,-0.00000043,-0.00002971,-0.00000024,0.00000022,0.0001
 4221,-0.00000020,0.00000019,-0.00017349,0.,-0.00000012,0.00549624,0.,0
 .00000003,0.00008004,-0.00000007,0.00000058,-0.00338446,0.,-0.00000006
 ,0.00019972,-0.00000003,-0.00000079,0.00309919,-0.00000015,0.00000018,
 -0.00059024,0.00000003,-0.00000002,0.00031672,-0.00000328,-0.00000427,
 -0.03449493,0.00000006,-0.00000014,0.00752564,0.00000003,0.00000001,-0
 .00114251,0.00000347,0.00000487,0.02396174,0.00070730,-0.00035441,0.00
 000045,-0.00023790,-0.00243218,0.00000034,-0.00359532,0.00010669,0.000
 00114,0.00124154,0.00031851,-0.00000055,0.00024225,0.00175393,-0.00000
 044,-0.00204514,0.00065906,0.00000321,-0.00149429,0.00102002,0.0000014
 1,0.00109306,-0.00061638,-0.00000111,-0.00075521,0.00168941,-0.0000011
 0,0.00110862,-0.00112658,-0.00000122,-0.00001283,0.00005010,-0.0000003
 3,-0.00014686,0.00004477,-0.00000020,0.00195280,0.00006345,-0.00000249
 ,-0.00093628,-0.00045663,0.00000068,-0.00033996,0.00016921,-0.00000174
 ,0.00064218,-0.00019508,0.00000152,0.00000390,-0.00004597,0.00000027,0
 .00043481,0.00013768,0.00000039,0.00004617,0.00000053,0.,-0.00076395,0
 .00003159,-0.00000039,-0.00011915,-0.00003473,0.00000045,-0.00002887,0
 .00004775,0.,0.00064731,0.00010840,-0.00000059,-0.00013036,0.00018555,
 -0.00000076,0.00002702,-0.00003082,0.00000018,-0.00000928,0.00005511,0
 .00000037,-0.00046714,-0.00040889,-0.00000044,-0.00005217,-0.00004622,
 0.00000032,-0.00005407,-0.00000568,0.00000053,0.00366886,-0.00340672,0
 .00000015,-0.00736414,0.00420647,-0.00000076,-0.00043914,-0.00006672,-
 0.00000178,0.00908531,-0.00755851,0.00000299,-0.00007610,0.00002660,0.
 00000026,-0.00436333,-0.00204055,0.00000050,-0.00051766,0.00012601,0.0
 0000010,-0.01726447,0.03539022,-0.00000146,-0.04253455,-0.01954015,-0.
 00000148,0.00011923,0.00034772,0.00000026,-0.15768459,0.11355625,0.000
 00139,-0.18301276,-0.11209043,-0.00000300,-0.00474081,0.00143736,0.000
 00016,0.01058398,-0.02093955,-0.00000002,0.71648068,-0.00125559,0.0010
 8782,-0.00000095,0.00019102,0.00310790,0.00000293,0.00512963,0.0010555
 3,0.00000106,-0.00135355,-0.00163518,0.00000184,-0.00204202,-0.0028006
 7,-0.00000222,0.00361963,0.00022466,-0.00000256,0.00272055,-0.00025833
 ,-0.00000109,-0.00143990,0.00098038,0.00000205,0.00107734,-0.00197034,
 -0.00000077,-0.00136251,0.00082060,-0.00000005,0.00002824,-0.00004070,
 -0.00000043,0.00000035,0.00001207,-0.00000024,-0.00273524,-0.00008937,
 0.00000164,0.00123561,0.00074398,-0.00000221,0.00042089,-0.00032275,0.
 00000636,-0.00068427,0.00023967,-0.00000318,0.00001047,0.00006816,-0.0
 0000009,-0.00059448,-0.00019631,-0.00000157,-0.00009151,-0.00003130,-0
 .00000073,0.00088772,0.00000246,0.00000296,0.00007881,0.00005736,-0.00
 000276,0.00001675,-0.00004097,0.00000005,-0.00077713,-0.00017914,0.000
 00028,0.00019700,-0.00020796,0.00000113,-0.00002465,0.00003417,-0.0000
 0006,0.00000332,-0.00005086,-0.00000018,0.00049742,0.00051668,0.000000
 23,0.00005018,0.00004503,-0.00000008,0.00005319,0.00000792,0.00000004,
 -0.00710282,-0.01311206,-0.00000287,-0.01193970,0.00613310,0.00000234,
 0.01842947,0.00452362,0.00000397,0.00819434,-0.04368339,-0.00000877,0.
 00047317,0.00048871,0.00000027,-0.02114165,0.02201942,-0.00000357,0.00
 027280,0.00041474,0.00000003,0.07252813,-0.01327582,0.00000759,-0.0609
 1872,0.03401551,0.00000104,-0.00054456,-0.00004504,0.,0.05411146,-0.32
 830959,-0.00000476,-0.04880279,-0.22651308,-0.00000425,0.00268935,0.00
 145612,0.00000010,0.01093196,-0.01828706,-0.00000027,-0.03944459,0.654
 95278,-0.00000339,0.00000275,0.00001343,0.00000204,0.00000464,-0.00002
 326,0.00000326,-0.00000302,0.00012561,0.00000119,-0.00000146,0.0000721
 8,-0.00000363,-0.00000427,0.00002841,0.00000744,-0.00000162,-0.0000269
 4,-0.00000140,0.00000464,-0.00001702,-0.00000265,0.00000351,0.00000545
 ,0.00000072,-0.00000210,0.00001145,0.00000240,-0.00000376,0.00002210,-
 0.00000018,0.00000005,-0.00000690,-0.00000014,0.00000011,-0.00002223,-
 0.00000425,-0.00000173,0.00002403,0.00000353,0.00000148,-0.00001362,-0
 .00000008,-0.00000004,-0.00002865,-0.00000297,0.00000057,-0.00000577,0
 .00000005,0.00000009,-0.00000227,-0.00000033,-0.00000037,0.00001730,0.
 00000011,0.00000018,-0.00000328,0.00000131,-0.00000128,0.00000893,-0.0
 0000090,0.00000111,0.00000465,0.00000009,-0.00000007,-0.00000127,-0.00
 000282,-0.00000172,-0.00000652,0.00000179,-0.00000021,0.00000191,0.,0.
 00000012,-0.00000070,-0.00000006,-0.00000003,-0.00000062,0.00000137,0.
 00000200,0.00000078,0.00000005,0.00000006,-0.00000066,0.00000016,0.000
 00005,-0.00000035,-0.00000477,0.00000212,0.00022365,0.00000182,-0.0000
 0185,-0.00114682,-0.00000011,0.00000010,-0.00007420,-0.00000145,-0.000
 00051,-0.00559483,0.00000003,0.,-0.00010224,0.00000094,-0.00000074,0.0
 0647961,-0.00000003,0.00000024,-0.00068502,0.00000200,0.00000129,0.006
 71785,-0.00000180,-0.00000030,0.00818931,0.,0.00000003,-0.00020615,-0.
 00000053,-0.00000312,-0.05744329,-0.00000072,-0.00000386,-0.05885859,-
 0.00000011,-0.00000013,0.00784469,0.00000020,-0.00000052,0.00318907,0.
 00000300,0.00000835,0.12044295,-0.00002645,-0.00007315,0.00000003,0.00
 002052,-0.00011425,-0.00000010,-0.00010601,0.00015645,-0.00000003,0.00
 002930,-0.00001077,-0.00000008,0.00000511,0.00006579,0.00000009,-0.000
 14972,0.00006269,0.00000008,-0.00007101,0.00010737,0.00000004,0.000060
 93,-0.00005539,-0.00000005,-0.00006064,0.00009182,0.00000003,0.0000306
 8,-0.00013797,0.,-0.00000332,0.00000777,0.00000002,0.00001175,-0.00000
 691,0.,0.00015631,0.00000643,-0.00000011,-0.00008154,-0.00003440,0.000
 00009,-0.00002654,0.00001129,-0.00000018,0.00005809,-0.00001779,0.0000
 0006,0.00000090,-0.00000437,0.,0.00003434,0.00001161,0.00000004,0.0000
 0488,0.00000026,0.00000002,-0.00006433,0.00000484,-0.00000005,-0.00001
 002,-0.00000258,0.00000011,-0.00000219,0.00000365,0.,0.00005682,0.0000
 1108,0.,-0.00001260,0.00001538,-0.00000005,0.00000261,-0.00000343,0.,-
 0.00000054,0.00000431,0.,-0.00004095,-0.00003689,-0.00000001,-0.000004
 91,-0.00000412,0.,-0.00000462,-0.00000058,0.,-0.00028302,0.00012253,0.
 00000010,0.00033622,0.00152927,-0.00000008,-0.00029428,-0.00014796,-0.
 00000014,-0.00558037,-0.00125757,0.00000018,0.00002251,-0.00000108,0.,
 0.00046230,-0.00021863,0.00000009,-0.00000101,0.00001786,0.,-0.0010258
 1,-0.00012845,-0.00000020,-0.00737849,0.03129529,0.00000045,0.00000236
 ,0.00009456,0.,-0.00202538,-0.00318925,-0.00000010,-0.09940301,0.09692
 480,0.00000137,0.00100836,-0.00042155,0.00000002,0.00035491,-0.0010219
 4,-0.00000002,0.01113780,-0.01848007,-0.00000023,0.10198242,-0.0000315
 7,0.00007400,-0.00000004,-0.00002284,0.00023436,0.00000009,0.00021833,
 -0.00005218,-0.00000003,-0.00005602,-0.00000469,0.00000011,-0.00001019
 ,-0.00013324,-0.00000007,0.00024283,-0.00009453,-0.00000020,0.00007944
 ,-0.00010126,-0.00000011,-0.00008299,0.00007174,0.00000007,0.00009156,
 -0.00016841,0.,-0.00003937,0.00012370,0.00000003,0.00000031,-0.0000093
 4,0.,-0.00001416,0.00000776,0.00000001,-0.00026315,-0.00001674,0.00000
 026,0.00013628,0.00006227,-0.00000013,0.00004555,-0.00001875,0.0000002
 2,-0.00010061,0.00002947,-0.00000009,-0.00000165,0.00000524,0.,-0.0000
 5798,-0.00001996,-0.00000004,-0.00000734,-0.00000033,-0.00000002,0.000
 11038,-0.00000940,0.00000002,0.00001823,0.00000679,-0.00000014,0.00000
 429,-0.00000701,0.,-0.00009728,-0.00001803,0.00000002,0.00002066,-0.00
 002700,0.00000009,-0.00000454,0.00000487,0.,0.00000118,-0.00000829,-0.
 00000002,0.00007104,0.00006213,0.00000003,0.00000838,0.00000749,-0.000
 00001,0.00000882,0.00000076,-0.00000002,-0.00019660,0.00023177,-0.0000
 0010,0.00021468,-0.00049453,0.00000017,0.00005816,0.00002371,0.0000002
 2,-0.00005923,0.00196465,-0.00000054,0.00000408,-0.00001094,0.,0.00002
 845,0.00005120,-0.00000007,0.00001911,-0.00002397,0.,-0.00037908,0.000
 52402,0.00000022,-0.00037002,-0.00092052,0.00000002,-0.00003155,0.0000
 3184,-0.00000002,-0.00473808,-0.00199211,-0.00000016,0.09753328,-0.293
 17496,-0.00000410,0.00031618,0.00095301,0.00000012,0.00061090,-0.00113
 524,-0.00000003,0.01294901,-0.01814812,-0.00000037,-0.10584107,0.31116
 803,0.00000021,-0.00000021,0.00000601,-0.00000031,-0.00000035,0.000011
 59,-0.00000025,0.00000014,-0.00000194,-0.00000008,-0.00000003,-0.00000
 538,0.00000052,0.00000054,-0.00000530,-0.00000066,0.00000013,0.0000013
 6,0.,-0.00000021,0.00001298,0.00000023,-0.00000023,-0.00000480,-0.0000
 0002,0.00000005,-0.00000712,-0.00000022,0.00000026,-0.00003313,0.,-0.0
 0000002,0.00000580,0.00000002,-0.00000001,0.00000632,0.00000001,0.0000
 0016,0.00000085,-0.00000036,-0.00000011,-0.00000366,0.00000006,-0.0000
 0013,-0.00000277,0.00000024,-0.00000025,0.00000119,0.,-0.00000001,0.00
 000163,0.00000014,0.00000019,0.00000003,-0.00000001,-0.00000003,0.0000
 0118,0.00000008,0.00000018,-0.00000069,0.00000006,-0.00000011,-0.00000
 112,0.,0.00000001,0.00000065,0.00000029,0.00000004,-0.00000035,-0.0000
 0011,0.00000012,-0.00000085,-0.00000001,-0.00000003,0.00000099,0.00000
 002,0.00000003,0.00000050,-0.00000015,-0.00000013,-0.00000084,0.,-0.00
 000002,0.00000058,0.,0.,0.00000049,0.00000072,-0.00000045,-0.00069124,
 -0.00000032,0.00000026,0.00027348,-0.00000012,0.00000015,0.00010061,0.
 00000012,-0.00000018,0.00863751,0.,0.00000003,0.00019008,-0.00000008,0
 .00000039,-0.00084586,0.,-0.00000005,0.00006200,-0.00000009,-0.0000005
 4,-0.00047548,-0.00000010,0.00000027,0.00324741,0.00000003,-0.00000002
 ,0.00004338,-0.00000015,-0.00000024,0.00506072,0.00000121,-0.00000409,
 -0.03473725,0.00000007,0.00000011,-0.00497340,0.00000002,-0.00000003,0
 .00035264,0.00000052,-0.00000026,0.00204879,-0.00000144,0.00000457,0.0
 2449457,0.00000523,-0.00006008,-0.00000002,0.00004689,-0.00019942,-0.0
 0000069,-0.00015079,0.00000948,-0.00000081,0.00003380,0.00004927,0.000
 00018,0.00002542,0.00010604,0.00000050,-0.00020514,0.00005610,-0.00000
 128,0.00004252,-0.00005240,-0.00000054,0.00001659,-0.00004942,0.000000
 29,-0.00008406,0.00014656,0.00000074,-0.00007515,0.00001531,0.00000071
 ,0.00000372,0.00000674,0.00000024,0.00002836,-0.00001651,0.00000012,0.
 00023283,0.00002528,0.00000072,-0.00012513,-0.00006051,0.00000025,-0.0
 0003807,0.00001409,-0.00000015,0.00009553,-0.00002456,-0.00000034,0.00
 000159,-0.00000244,-0.00000017,0.00004973,0.00001856,0.00000005,0.0000
 0728,0.00000011,0.00000009,-0.00010038,0.00001190,-0.00000023,-0.00001
 410,-0.00000958,0.00000034,-0.00000447,0.00000680,0.,0.00009179,0.0000
 1995,0.00000030,-0.00002185,0.00002380,0.00000015,0.00000406,-0.000003
 65,-0.00000011,-0.00000108,0.00000796,-0.00000016,-0.00006492,-0.00005
 977,0.00000017,-0.00000735,-0.00000687,-0.00000015,-0.00000876,-0.0000
 0071,-0.00000029,0.00030014,-0.00012585,0.00000039,-0.00015213,0.00016
 341,-0.00000030,-0.00005492,0.00035697,0.00000011,0.00074334,-0.000230
 26,-0.00000019,0.00004024,-0.00000029,-0.00000013,-0.00062268,-0.00040
 850,0.00000031,-0.00008475,0.00003132,-0.00000003,0.00156307,0.0022636
 3,0.00000002,-0.00010867,-0.00407570,0.00000012,0.00002626,0.00005304,
 -0.00000010,-0.00872005,-0.00129335,0.00000002,-0.01472365,0.00611925,
 0.00000020,-0.00088400,0.00032414,-0.00000017,0.00095255,0.00041130,-0
 .00000015,-0.33003653,0.03688697,-0.00000093,0.00087767,-0.00038582,-0
 .00000013,0.35110000,-0.00000948,0.00003803,-0.00000004,-0.00002494,0.
 00008705,0.00000007,0.00010102,0.00001620,0.00000004,-0.00000715,-0.00
 000516,0.00000002,-0.00002367,-0.00005086,-0.00000004,0.00009221,-0.00
 001740,-0.00000007,0.00008807,-0.00008273,-0.00000003,-0.00004847,0.00
 003389,0.00000005,0.00003641,-0.00005824,0.,-0.00006642,0.00008349,0.,
 0.00000176,-0.00000192,0.,-0.00002034,0.00000968,0.,-0.00008375,-0.000
 00041,0.00000009,0.00004124,0.00002021,-0.00000010,0.00001438,-0.00000
 860,0.00000018,-0.00002661,0.00000911,-0.00000007,0.,0.00000212,0.,-0.
 00001917,-0.00000546,-0.00000004,-0.00000326,-0.00000081,-0.00000001,0
 .00003229,-0.00000126,0.00000008,0.00000523,0.00000159,-0.00000009,0.0
 0000103,-0.00000197,0.,-0.00002725,-0.00000455,0.,0.00000520,-0.000007
 63,0.00000004,-0.00000104,0.00000125,0.,0.00000032,-0.00000234,0.,0.00
 001957,0.00001715,0.,0.00000215,0.00000195,0.,0.00000231,0.00000023,0.
 ,-0.00024085,-0.00018298,-0.00000009,-0.00013310,0.00029062,0.00000011
 ,0.00031936,-0.00042813,0.00000013,0.00010312,-0.00103584,-0.00000025,
 0.00008114,-0.00000431,0.,0.00114940,0.00082158,-0.00000009,0.00016337
 ,-0.00002751,0.,0.00075135,-0.00545280,-0.00000004,-0.00251982,-0.0041
 2751,-0.00000015,-0.00003870,-0.00003417,-0.00000001,0.03052093,0.0009
 0002,0.00000017,-0.02543348,0.00789670,-0.00000006,-0.00127793,0.00021
 504,0.,-0.00048850,0.00103832,0.00000010,0.03635933,-0.06381034,-0.000
 00040,0.00066511,0.00095074,0.00000007,-0.04006230,0.06291797,0.000000
 04,-0.00000004,-0.00000418,-0.00000028,-0.00000009,0.00000006,0.000000
 21,0.00000005,0.00005792,-0.00000028,-0.00000045,-0.00001807,0.0000004
 8,0.00000038,0.00001221,-0.00000016,0.00000015,-0.00000385,0.,0.000000
 14,0.00000395,0.00000006,0.,-0.00000501,0.00000004,-0.00000016,-0.0000
 0572,-0.00000016,0.00000008,-0.00001070,0.,-0.00000003,0.00000305,0.00
 000001,-0.00000004,-0.00000064,-0.00000087,0.00000003,-0.00000226,-0.0
 0000012,0.00000009,-0.00000302,0.00000012,-0.00000031,-0.00000045,0.00
 000008,-0.00000038,0.00000317,0.00000003,-0.00000001,0.00000115,0.0000
 0025,0.00000033,-0.00000024,-0.00000001,-0.00000003,0.00000124,0.00000
 037,0.00000016,-0.00000078,-0.00000003,-0.00000005,-0.00000135,0.,0.00
 000001,0.00000062,0.00000012,-0.00000019,-0.00000040,0.00000009,0.0000
 0018,-0.00000042,-0.00000004,-0.00000003,0.00000063,0.00000004,0.00000
 005,0.00000042,-0.00000010,0.00000009,-0.00000070,0.,-0.00000003,0.000
 00045,0.00000005,0.,0.00000027,0.00000062,-0.00000038,0.00013270,-0.00
 000013,0.00000011,-0.00067774,-0.00000034,0.00000029,-0.00053562,-0.00
 000010,-0.00000008,-0.00063268,0.,0.00000004,0.00005120,0.00000004,0.0
 0000063,0.00070867,0.,-0.00000005,-0.00011371,0.00000011,-0.00000105,0
 .00765681,-0.00000031,-0.00000003,0.00490674,0.00000006,-0.00000003,0.
 00013263,0.00000016,0.00000015,0.00212050,-0.00000049,0.00000020,0.001
 38096,0.,0.,0.00044561,0.00000005,0.00000012,-0.00455035,-0.00000073,-
 0.00000035,-0.03120094,0.00000003,0.00000005,-0.00277217,0.00000106,0.
 00000047,0.02292007||0.00016105,-0.00013006,0.00000698,-0.00016000,-0.
 00026024,-0.00001852,0.00002648,0.00025775,-0.00000247,-0.00012326,-0.
 00023916,0.00000182,0.00012413,0.00024540,0.00000322,-0.00001113,-0.00
 024671,0.00000402,0.00018715,0.00023381,-0.00000035,-0.00017496,0.0001
 3899,-0.00000175,-0.00000353,0.00008868,0.00000616,-0.00002731,-0.0000
 8091,0.00000019,0.00002521,-0.00001031,-0.00000033,-0.00001652,0.00000
 565,0.00000062,0.00004201,0.00007375,0.00000047,-0.00008828,-0.0000395
 5,-0.00000006,-0.00002913,-0.00003332,-0.00000015,0.00005773,0.0000267
 0,-0.00000004,0.00000205,0.00000948,-0.00000008,-0.00000942,0.00002994
 ,0.,-0.00001273,0.00000728,-0.00000010,-0.00000134,-0.00001235,-0.0000
 0002,-0.00005809,-0.00000821,0.,0.00000898,-0.00001109,0.00000004,-0.0
 0002232,-0.00003113,0.,0.00004660,-0.00002569,0.00000002,0.00000518,0.
 00000268,-0.00000001,0.00001082,-0.00000148,0.,-0.00000922,0.00003688,
 -0.00000001,-0.00000453,0.00000225,0.,0.00000797,-0.00001481,0.,-0.000
 04330,-0.00002559,0.00000020,0.00007069,-0.00002103,0.00000017,0.00004
 572,-0.00001484,-0.00000003,-0.00004039,0.00001263,0.00000005,0.000016
 71,-0.00000138,-0.00000010,-0.00001214,0.00002787,-0.00000003,-0.00000
 872,0.00001037,0.00000011,0.00003248,-0.00001433,-0.00000003,0.0000243
 4,-0.00000423,-0.00000002,-0.00000665,-0.00000420,-0.00000001,-0.00001
 355,-0.00000596,0.00000003,-0.00002442,0.00000725,0.00000002,0.0000013
 1,0.00000268,-0.00000003,-0.00000424,0.00000434,0.,0.00001850,0.000009
 13,-0.00000002,0.00000093,0.00000217,0.,-0.00001086,0.00000089,0.|||@


 ...THOSE SCIENCES ARE VAIN AND FULL OF ERRORS WHICH 
 ARE NOT BORN FROM EXPERIMENT, THE MOTHER OF CERTAINTY...

                          -- LEONARDO DA VINCI, 1452-1519
 Job cpu time:  0 days 11 hours 37 minutes 30.0 seconds.
 File lengths (MBytes):  RWF=   3305 Int=      0 D2E=      0 Chk=     36 Scr=      1
 Normal termination of Gaussian 09 at Wed Jul 19 02:04:17 2023.
