 Entering Link 1 = C:\G09W\l1.exe PID=     13056.
  
 Copyright (c) 1988,1990,1992,1993,1995,1998,2003,2009,2010,
            Gaussian, Inc.  All Rights Reserved.
  
 This is part of the Gaussian(R) 09 program.  It is based on
 the Gaussian(R) 03 system (copyright 2003, Gaussian, Inc.),
 the Gaussian(R) 98 system (copyright 1998, Gaussian, Inc.),
 the Gaussian(R) 94 system (copyright 1995, Gaussian, Inc.),
 the Gaussian 92(TM) system (copyright 1992, Gaussian, Inc.),
 the Gaussian 90(TM) system (copyright 1990, Gaussian, Inc.),
 the Gaussian 88(TM) system (copyright 1988, Gaussian, Inc.),
 the Gaussian 86(TM) system (copyright 1986, Carnegie Mellon
 University), and the Gaussian 82(TM) system (copyright 1983,
 Carnegie Mellon University). Gaussian is a federally registered
 trademark of Gaussian, Inc.
  
 This software contains proprietary and confidential information,
 including trade secrets, belonging to Gaussian, Inc.
  
 This software is provided under written license and may be
 used, copied, transmitted, or stored only in accord with that
 written license.
  
 The following legend is applicable only to US Government
 contracts under FAR:
  
                    RESTRICTED RIGHTS LEGEND
  
 Use, reproduction and disclosure by the US Government is
 subject to restrictions as set forth in subparagraphs (a)
 and (c) of the Commercial Computer Software - Restricted
 Rights clause in FAR 52.227-19.
  
 Gaussian, Inc.
 340 Quinnipiac St., Bldg. 40, Wallingford CT 06492
  
  
 ---------------------------------------------------------------
 Warning -- This program may not be used in any manner that
 competes with the business of Gaussian, Inc. or will provide
 assistance to any competitor of Gaussian, Inc.  The licensee
 of this program is prohibited from giving any competitor of
 Gaussian, Inc. access to this program.  By using this program,
 the user acknowledges that Gaussian, Inc. is engaged in the
 business of creating and licensing software in the field of
 computational chemistry and represents and warrants to the
 licensee that it is not a competitor of Gaussian, Inc. and that
 it will not use this program in any manner prohibited above.
 ---------------------------------------------------------------
  

 Cite this work as:
 Gaussian 09, Revision B.01,
 M. J. Frisch, G. W. Trucks, H. B. Schlegel, G. E. Scuseria, 
 M. A. Robb, J. R. Cheeseman, G. Scalmani, V. Barone, B. Mennucci, 
 G. A. Petersson, H. Nakatsuji, M. Caricato, X. Li, H. P. Hratchian, 
 A. F. Izmaylov, J. Bloino, G. Zheng, J. L. Sonnenberg, M. Hada, 
 M. Ehara, K. Toyota, R. Fukuda, J. Hasegawa, M. Ishida, T. Nakajima, 
 Y. Honda, O. Kitao, H. Nakai, T. Vreven, J. A. Montgomery, Jr., 
 J. E. Peralta, F. Ogliaro, M. Bearpark, J. J. Heyd, E. Brothers, 
 K. N. Kudin, V. N. Staroverov, T. Keith, R. Kobayashi, J. Normand, 
 K. Raghavachari, A. Rendell, J. C. Burant, S. S. Iyengar, J. Tomasi, 
 M. Cossi, N. Rega, J. M. Millam, M. Klene, J. E. Knox, J. B. Cross, 
 V. Bakken, C. Adamo, J. Jaramillo, R. Gomperts, R. E. Stratmann, 
 O. Yazyev, A. J. Austin, R. Cammi, C. Pomelli, J. W. Ochterski, 
 R. L. Martin, K. Morokuma, V. G. Zakrzewski, G. A. Voth, 
 P. Salvador, J. J. Dannenberg, S. Dapprich, A. D. Daniels, 
 O. Farkas, J. B. Foresman, J. V. Ortiz, J. Cioslowski, 
 and D. J. Fox, Gaussian, Inc., Wallingford CT, 2010.
 
 ******************************************
 Gaussian 09:  IA32W-G09RevB.01 12-Aug-2010
                17-Jul-2023 
 ******************************************
 %nprocshared=6
 Will use up to    6 processors via shared memory.
 %chk=G:\Meu Drive\POS-DOC-IME\SUBSTITUINTES-DOADORES\DPP-substituido\DPP-SUB-2-T
 D-DFT.chk
 ---------------------------------------------------------
 # td=(nstates=10) cam-b3lyp/6-31+g(d,p) geom=connectivity
 ---------------------------------------------------------
 1/38=1,57=2/1;
 2/12=2,17=6,18=5,40=1/2;
 3/5=1,6=6,7=111,11=2,16=1,25=1,30=1,74=-40/1,2,8,3;
 4//1;
 5/5=2,38=5/2;
 8/6=1,10=2,108=10/1;
 9/41=10,42=1/14;
 6/7=2,8=2,9=2,10=2/1;
 99/5=1,9=1/99;
 -------
 Energy:
 -------
 Symbolic Z-matrix:
 Charge =  0 Multiplicity = 1
 N                     1.12975   2.22892   0.00011 
 C                    -0.28729   2.18586   0.00011 
 C                     1.72323   0.97115  -0.00001 
 C                     0.68182   0.05285  -0.00005 
 C                    -0.57066   0.75348   0.00003 
 C                    -1.60889  -0.16861  -0.00001 
 C                     0.40494  -1.37651  -0.00014 
 N                    -1.01011  -1.42496  -0.00013 
 O                    -0.99057   3.19182   0.00021 
 O                     1.11753  -2.37838  -0.00025 
 H                    -1.49268  -2.31034  -0.00012 
 H                     1.61419   3.11335   0.00011 
 C                    -3.05287   0.01132   0.00002 
 C                    -3.92536  -1.07311   0.00001 
 C                    -3.59624   1.33561   0.00006 
 C                    -5.33044  -0.89673   0.00004 
 H                    -3.55354  -2.09401  -0.00005 
 C                    -4.95536   1.52949   0.0001 
 H                    -2.92198   2.18648   0.00005 
 C                    -5.8643    0.43405   0.0001 
 C                    -6.22995  -2.00047   0.00003 
 H                    -5.35375   2.54062   0.00013 
 C                    -7.27319   0.60879   0.00013 
 C                    -7.59264  -1.79748   0.00007 
 H                    -5.82445  -3.00912  -0.00001 
 H                    -7.6757    1.61829   0.00017 
 C                    -8.11939  -0.4807    0.00012 
 H                    -8.26946  -2.64671   0.00006 
 H                    -9.19538  -0.33353   0.00015 
 C                     3.16594   0.78546  -0.00004 
 C                     3.69779  -0.50224   0.00003 
 C                     4.06121   1.90121  -0.00012 
 C                     5.09709  -0.71769  -0.00001 
 H                     3.03263  -1.36211   0.00012 
 C                     5.42159   1.71467  -0.00016 
 H                     3.6779    2.91665  -0.00015 
 C                     5.98547   0.40785  -0.0001 
 C                     5.64756  -2.03123   0.00006 
 H                     6.08684   2.57397  -0.00022 
 C                     7.38642   0.17981  -0.00014 
 C                     7.01235  -2.21994   0.00002 
 H                     4.96988  -2.88035   0.00013 
 H                     8.05905   1.03365  -0.00021 
 C                     7.8891   -1.10511  -0.00008 
 H                     7.42283  -3.22528   0.00007 
 H                     8.96299  -1.26751  -0.0001 
 
                          Input orientation:                          
 ---------------------------------------------------------------------
 Center     Atomic      Atomic             Coordinates (Angstroms)
 Number     Number       Type             X           Y           Z
 ---------------------------------------------------------------------
      1          7           0        1.129745    2.228916    0.000105
      2          6           0       -0.287290    2.185855    0.000106
      3          6           0        1.723230    0.971151   -0.000006
      4          6           0        0.681815    0.052851   -0.000050
      5          6           0       -0.570660    0.753481    0.000026
      6          6           0       -1.608894   -0.168609   -0.000013
      7          6           0        0.404941   -1.376508   -0.000144
      8          7           0       -1.010110   -1.424962   -0.000132
      9          8           0       -0.990571    3.191820    0.000212
     10          8           0        1.117529   -2.378378   -0.000250
     11          1           0       -1.492681   -2.310341   -0.000117
     12          1           0        1.614188    3.113349    0.000109
     13          6           0       -3.052873    0.011320    0.000021
     14          6           0       -3.925356   -1.073112    0.000005
     15          6           0       -3.596243    1.335614    0.000062
     16          6           0       -5.330437   -0.896730    0.000042
     17          1           0       -3.553543   -2.094005   -0.000049
     18          6           0       -4.955357    1.529487    0.000101
     19          1           0       -2.921976    2.186476    0.000050
     20          6           0       -5.864301    0.434052    0.000095
     21          6           0       -6.229950   -2.000471    0.000028
     22          1           0       -5.353749    2.540622    0.000132
     23          6           0       -7.273187    0.608794    0.000134
     24          6           0       -7.592644   -1.797476    0.000066
     25          1           0       -5.824448   -3.009116   -0.000014
     26          1           0       -7.675701    1.618289    0.000174
     27          6           0       -8.119392   -0.480696    0.000121
     28          1           0       -8.269464   -2.646708    0.000055
     29          1           0       -9.195383   -0.333531    0.000151
     30          6           0        3.165939    0.785458   -0.000037
     31          6           0        3.697789   -0.502242    0.000025
     32          6           0        4.061208    1.901211   -0.000123
     33          6           0        5.097093   -0.717691   -0.000007
     34          1           0        3.032627   -1.362105    0.000115
     35          6           0        5.421585    1.714673   -0.000156
     36          1           0        3.677903    2.916653   -0.000153
     37          6           0        5.985468    0.407846   -0.000102
     38          6           0        5.647560   -2.031229    0.000055
     39          1           0        6.086838    2.573967   -0.000219
     40          6           0        7.386422    0.179814   -0.000135
     41          6           0        7.012354   -2.219940    0.000021
     42          1           0        4.969881   -2.880345    0.000131
     43          1           0        8.059050    1.033649   -0.000206
     44          6           0        7.889098   -1.105114   -0.000075
     45          1           0        7.422834   -3.225280    0.000069
     46          1           0        8.962990   -1.267513   -0.000101
 ---------------------------------------------------------------------
                    Distance matrix (angstroms):
                    1          2          3          4          5
     1  N    0.000000
     2  C    1.417689   0.000000
     3  C    1.390754   2.348978   0.000000
     4  C    2.221689   2.342834   1.388460   0.000000
     5  C    2.251285   1.460135   2.304194   1.435122   0.000000
     6  C    3.639817   2.700026   3.521662   2.301389   1.388589
     7  C    3.677557   3.628996   2.692469   1.455928   2.342787
     8  N    4.234360   3.682454   3.634901   2.246451   2.222325
     9  O    2.328717   1.227424   3.506578   3.556684   2.474232
    10  O    4.607310   4.775536   3.403853   2.469964   3.557882
    11  H    5.242325   4.654970   4.594592   3.211403   3.199551
    12  H    1.008418   2.115624   2.144971   3.199370   3.215982
    13  C    4.734134   3.518103   4.871595   3.734919   2.590788
    14  C    6.037999   4.884300   6.007124   4.742765   3.819742
    15  C    4.809673   3.416443   5.331944   4.466236   3.081076
    16  C    7.176602   5.910640   7.296794   6.086779   5.037725
    17  H    6.373447   5.383829   6.102419   4.748394   4.123805
    18  C    6.125167   4.713986   6.701885   5.827363   4.452837
    19  H    4.051943   2.634686   4.801557   4.188038   2.753573
    20  C    7.220680   5.845671   7.606517   6.557206   5.303270
    21  C    8.488394   7.269149   8.490207   7.210314   6.293792
    22  H    6.490983   5.078865   7.248922   6.528173   5.106057
    23  C    8.557690   7.161695   9.003712   7.974405   6.704088
    24  C    9.606867   8.320765   9.718580   8.478820   7.470987
    25  H    8.706192   7.592618   8.532876   7.190765   6.462153
    26  H    8.826593   7.410179   9.421183   8.502862   7.157479
    27  C    9.637870   8.273591   9.949124   8.817365   7.648957
    28  H   10.588524   9.331065  10.627457   9.349493   8.416226
    29  H   10.638346   9.257507  10.996286   9.884752   8.692954
    30  C    2.495928   3.726379   1.454610   2.589901   3.736736
    31  C    3.748876   4.806945   2.463690   3.066631   4.449325
    32  C    2.949723   4.357804   2.516178   3.851848   4.771948
    33  C    4.941897   6.117365   3.772948   4.482010   5.855576
    34  H    4.064036   4.858999   2.675557   2.743796   4.178442
    35  C    4.322538   5.728287   3.772354   5.022656   6.068846
    36  H    2.639335   4.031975   2.757848   4.144624   4.767557
    37  C    5.185975   6.519878   4.299301   5.315520   6.565233
    38  C    6.209629   7.280539   4.941118   5.385352   6.813286
    39  H    4.969088   6.385933   4.648666   5.964084   6.901916
    40  C    6.583679   7.931586   5.718213   6.705809   7.977735
    41  C    7.375460   8.526185   6.177208   6.726166   8.145142
    42  H    6.391494   7.300975   5.037337   5.195301   6.625880
    43  H    7.031638   8.425495   6.336128   7.442148   8.634257
    44  C    7.536883   8.813841   6.506059   7.299713   8.661517
    45  H    8.327738   9.419469   7.077819   7.495831   8.928969
    46  H    8.578155   9.873876   7.577977   8.385775   9.745507
                    6          7          8          9         10
     6  C    0.000000
     7  C    2.348308   0.000000
     8  N    1.391749   1.415880   0.000000
     9  O    3.416842   4.776722   4.616823   0.000000
    10  O    3.509482   1.229441   2.331491   5.955770   0.000000
    11  H    2.144883   2.114950   1.008351   5.525024   2.611097
    12  H    4.599946   4.649849   5.242443   2.605941   5.514140
    13  C    1.455146   3.725929   2.497156   3.790603   4.806549
    14  C    2.486789   4.340912   2.936402   5.177124   5.209070
    15  C    2.492437   4.833744   3.782706   3.199223   6.001115
    16  C    3.792103   5.755410   4.352500   5.962439   6.616007
    17  H    2.736569   4.022984   2.629956   5.874417   4.679720
    18  C    3.752645   6.097344   4.928868   4.299172   7.221589
    19  H    2.696407   4.874755   4.086284   2.177393   6.095531
    20  C    4.297870   6.525452   5.197990   5.599869   7.526999
    21  C    4.970903   6.664166   5.251470   7.376380   7.357191
    22  H    4.622107   6.964655   5.881586   4.411506   8.128592
    23  C    5.717392   7.930641   6.585005   6.792885   8.906588
    24  C    6.201489   8.008657   6.593066   8.275291   8.729522
    25  H    5.083245   6.439775   5.068273   7.862441   6.970572
    26  H    6.324488   8.617748   7.327447   6.867821   9.658894
    27  C    6.517974   8.571274   7.171717   8.019193   9.429841
    28  H    7.106628   8.766910   7.361446   9.331168   9.390827
    29  H    7.588281   9.656812   8.257719   8.930120  10.513684
    30  C    4.869217   3.506737   4.724970   4.802828   3.769064
    31  C    5.317160   3.406932   4.797471   5.968820   3.190239
    32  C    6.036076   4.910370   6.064791   5.214033   5.194240
    33  C    6.728429   4.738178   6.148021   7.234910   4.312170
    34  H    4.792510   2.627725   4.043226   6.076541   2.168043
    35  C    7.278351   5.892548   7.157095   6.580099   5.939526
    36  H    6.121198   5.398473   6.389608   4.676576   5.881570
    37  C    7.616209   5.858857   7.231687   7.511034   5.608910
    38  C    7.491694   5.283343   6.685217   8.446598   4.543313
    39  H    8.169823   6.920275   8.146048   7.104327   7.015679
    40  C    9.002061   7.152847   8.548512   8.902033   6.770773
    41  C    8.861934   6.661027   8.061757   9.660950   5.896954
    42  H    7.115743   4.806267   6.154546   8.508712   3.884918
    43  H    9.742411   8.024602   9.396512   9.303405   7.734768
    44  C    9.544050   7.489076   8.904954   9.864693   6.890236
    45  H    9.534954   7.257326   8.622975  10.581331   6.361927
    46  H   10.628844   8.558743   9.974343  10.906834   7.923716
                   11         12         13         14         15
    11  H    0.000000
    12  H    6.250524   0.000000
    13  C    2.797197   5.603931   0.000000
    14  C    2.729220   6.943558   1.391840   0.000000
    15  C    4.209271   5.505355   1.431435   2.431106   0.000000
    16  C    4.089825   8.019261   2.451908   1.416108   2.826798
    17  H    2.072186   7.336346   2.164039   1.086493   3.429885
    18  C    5.170532   6.757776   2.433984   2.799004   1.372872
    19  H    4.718501   4.629890   2.179091   3.410526   1.085634
    20  C    5.161662   7.943956   2.843032   2.455820   2.440676
    21  C    4.747393   9.363848   3.760468   2.484180   4.250397
    22  H    6.199975   6.991435   3.419269   3.885792   2.130932
    23  C    6.475770   9.233538   4.262397   3.746569   3.748091
    24  C    6.121485  10.434652   4.886846   3.738142   5.078137
    25  H    4.387766   9.634204   4.099349   2.711948   4.882784
    26  H    7.325563   9.409423   4.894169   4.616138   4.089240
    27  C    6.874656  10.375921   5.090353   4.235669   4.874203
    28  H    6.785126  11.439617   5.854736   4.620333   6.139860
    29  H    7.952320  11.345828   6.152183   5.321669   5.842638
    30  C    5.593453   2.797679   6.266810   7.330808   6.784525
    31  C    5.496381   4.172995   6.770169   7.644490   7.522009
    32  C    6.970140   2.730785   7.360831   8.522429   7.678311
    33  C    6.779503   5.177595   8.182506   9.029447   8.932533
    34  H    4.623588   4.694854   6.238558   6.963982   7.156787
    35  C    8.000488   4.056176   8.643949   9.753822   9.025791
    36  H    7.352306   2.073068   7.331051   8.586488   7.443983
    37  C    7.956837   5.140801   9.047035  10.020862   9.626523
    38  C    7.145694   6.537184   8.936976   9.620744   9.837862
    39  H    9.016960   4.505056   9.492180  10.655760   9.761945
    40  C    9.221678   6.474899  10.440655  11.380955  11.043315
    41  C    8.505515   7.588423  10.309574  10.997669  11.188579
    42  H    6.487651   6.869137   8.527972   9.076967   9.547397
    43  H   10.120170   6.772104  11.158853  12.168173  11.659204
    44  C    9.458877   7.561080  10.998780  11.814497  11.741815
    45  H    8.962339   8.597592  10.964306  11.550465  11.925679
    46  H   10.507547   8.555515  12.083724  12.889812  12.826169
                   16         17         18         19         20
    16  C    0.000000
    17  H    2.142620   0.000000
    18  C    2.455038   3.885200   0.000000
    19  H    3.912396   4.326823   2.136884   0.000000
    20  C    1.433873   3.425007   1.423431   3.424656   0.000000
    21  C    1.423857   2.678041   3.753024   5.336030   2.461829
    22  H    3.437431   4.971972   1.086789   2.457425   2.167556
    23  C    2.457820   4.597921   2.493995   4.628403   1.419681
    24  C    2.434938   4.049971   4.245464   6.138975   2.822567
    25  H    2.169383   2.448354   4.621064   5.951346   3.443399
    26  H    3.438835   5.547370   2.721793   4.787561   2.164160
    27  C    2.819815   4.842493   3.748593   5.841827   2.433557
    28  H    3.420571   4.748199   5.331408   7.208002   3.908438
    29  H    3.905765   5.910129   4.631269   6.760627   3.418375
    30  C    8.661303   7.310455   8.155307   6.247044   9.037075
    31  C    9.036840   7.423983   8.888468   7.144963   9.607820
    32  C    9.799565   8.599197   9.024224   6.989008  10.033359
    33  C   10.429067   8.759437  10.300561   8.528755  11.021736
    34  H    8.376002   6.626712   8.495245   6.931791   9.076426
    35  C   11.064601   9.749818  10.378594   8.356890  11.358310
    36  H    9.782233   8.797756   8.743993   6.640148   9.859866
    37  C   11.390857   9.861642  10.998169   9.083286  11.849798
    38  C   11.036463   9.201317  11.184836   9.551229  11.772874
    39  H   11.933143  10.711065  11.091484   9.017144  12.141209
    40  C   12.762345  11.173768  12.415358  10.501893  13.253162
    41  C   12.413516  10.566647  12.541304  10.867724  13.147316
    42  H   10.489580   8.559620  10.860800   9.378384  11.329816
    43  H   13.527924  12.026410  13.023849  11.041374  13.936256
    44  C   13.221177  11.485292  13.111870  11.301057  13.839256
    45  H   12.964107  11.034520  13.259993  11.674853  13.781824
    46  H   14.298235  12.543791  14.196605  12.376690  14.924607
                   21         22         23         24         25
    21  C    0.000000
    22  H    4.624852   0.000000
    23  C    2.810090   2.723270   0.000000
    24  C    1.377731   4.881777   2.427383   0.000000
    25  H    1.087105   5.569663   3.897194   2.143499   0.000000
    26  H    3.896873   2.498431   1.086783   3.416775   4.983976
    27  C    2.424811   4.095991   1.379511   1.418229   3.414627
    28  H    2.139448   5.950612   3.404535   1.085947   2.471729
    29  H    3.401835   4.797802   2.140751   2.170693   4.303714
    30  C    9.800211   8.698602  10.440621  11.064296   9.758373
    31  C   10.040154   9.549312  11.027090  11.364485   9.846696
    32  C   11.005955   9.436645  11.407842  12.226715  11.038003
    33  C   11.399449  10.946995  12.441197  12.735594  11.159332
    34  H    9.284549   9.250004  10.492580  10.634187   9.008908
    35  C   12.229496  10.806943  12.742849  13.479813  12.197846
    36  H   11.060907   9.039477  11.191630  12.216720  11.198634
    37  C   12.450559  11.538049  13.260178  13.756038  12.294297
    38  C   11.877550  11.913464  13.187700  13.242267  11.513611
    39  H   13.138826  11.440636  13.503784  14.360980  13.154830
    40  C   13.789823  12.957059  14.665884  15.109007  13.590304
    41  C   13.244123  13.250791  14.562912  14.611107  12.861037
    42  H   11.234340  11.660370  12.730546  12.609109  10.795097
    43  H   14.607580  13.497190  15.338122  15.905684  14.460134
    44  C   14.147409  13.735516  15.258846  15.497216  13.845092
    45  H   13.707614  14.017371  15.187928  15.083209  13.249046
    46  H   15.210610  14.814551  16.344234  16.564114  14.889644
                   26         27         28         29         30
    26  H    0.000000
    27  C    2.145367   0.000000
    28  H    4.306130   2.171205   0.000000
    29  H    2.473668   1.086008   2.491609   0.000000
    30  C   10.873581  11.356137  11.939355  12.411866   0.000000
    31  C   11.569483  11.817201  12.157873  12.894276   1.393211
    32  C   11.740318  12.411305  13.142642  13.443633   1.430528
    33  C   12.984647  13.218610  13.505034  14.297638   2.447205
    34  H   11.115351  11.186796  11.374861  12.271194   2.151697
    35  C   13.097641  13.717788  14.368941  14.759773   2.439545
    36  H   11.427601  12.276732  13.179172  13.277243   2.191826
    37  C   13.714690  14.132819  14.578525  15.198943   2.844703
    38  C   13.814060  13.853993  13.930627  14.939717   3.753954
    39  H   13.795680  14.530930  15.276088  15.556344   3.424969
    40  C   15.130656  15.519876  15.908991  16.589749   4.263717
    41  C   15.181270  15.231372  15.287776  16.317147   4.881324
    42  H   13.421939  13.307418  13.241406  14.392393   4.085623
    43  H   15.745609  16.249161  16.738142  17.308513   4.899401
    44  C   15.801262  16.020663  16.231933  17.101896   5.087484
    45  H   15.856416  15.782697  15.702960  16.867938   5.848690
    46  H   16.887092  17.100493  17.287558  18.182377   6.149837
                   31         32         33         34         35
    31  C    0.000000
    32  C    2.430773   0.000000
    33  C    1.415793   2.816328   0.000000
    34  H    1.087108   3.421580   2.162704   0.000000
    35  C    2.808235   1.373107   2.453913   3.895341   0.000000
    36  H    3.418953   1.085378   3.901609   4.327141   2.117825
    37  C    2.462059   2.435758   1.433891   3.442673   1.423292
    38  C    2.477783   4.240353   1.424218   2.699185   3.752712
    39  H    3.894948   2.134427   3.437238   4.982055   1.086714
    40  C    3.751162   3.744363   2.458972   4.618771   2.493266
    41  C    3.733206   5.068841   2.434128   4.071131   4.244022
    42  H    2.696960   4.867131   2.166392   2.461302   4.617167
    43  H    4.623803   4.090893   3.440985   5.568174   2.723971
    44  C    4.234445   4.867313   2.818757   4.863266   3.746975
    45  H    4.614206   6.130370   3.420099   4.769207   5.329928
    46  H    5.320525   5.836804   3.904800   5.931117   4.629793
                   36         37         38         39         40
    36  H    0.000000
    37  C    3.408661   0.000000
    38  C    5.325513   2.462371   0.000000
    39  H    2.433188   2.168492   4.626099   0.000000
    40  C    4.609056   1.419391   2.812890   2.724131   0.000000
    41  C    6.123982   2.821304   1.377779   4.882430   2.428733
    42  H    5.939225   3.441456   1.086392   5.567505   3.899262
    43  H    4.768664   2.165957   3.899841   2.502439   1.086951
    44  C    5.823124   2.431636   2.425321   4.096801   1.379755
    45  H    7.193598   3.907125   2.139476   5.951147   3.405289
    46  H    6.740875   3.416499   3.402255   4.798877   2.140169
                   41         42         43         44         45
    41  C    0.000000
    42  H    2.146586   0.000000
    43  H    3.417808   4.986212   0.000000
    44  C    1.418280   3.416617   2.145505   0.000000
    45  H    1.085911   2.477087   4.306187   2.170831   0.000000
    46  H    2.170737   4.306524   2.472338   1.086102   2.490970
                   46
    46  H    0.000000
 Stoichiometry    C26H16N2O2
 Framework group  C1[X(C26H16N2O2)]
 Deg. of freedom   132
 Full point group                 C1      NOp   1
 Largest Abelian subgroup         C1      NOp   1
 Largest concise Abelian subgroup C1      NOp   1
                         Standard orientation:                         
 ---------------------------------------------------------------------
 Center     Atomic      Atomic             Coordinates (Angstroms)
 Number     Number       Type             X           Y           Z
 ---------------------------------------------------------------------
      1          7           0        1.129745    2.228916    0.000105
      2          6           0       -0.287290    2.185855    0.000106
      3          6           0        1.723230    0.971151   -0.000006
      4          6           0        0.681815    0.052851   -0.000050
      5          6           0       -0.570660    0.753481    0.000026
      6          6           0       -1.608894   -0.168609   -0.000013
      7          6           0        0.404941   -1.376508   -0.000144
      8          7           0       -1.010110   -1.424962   -0.000132
      9          8           0       -0.990571    3.191820    0.000212
     10          8           0        1.117529   -2.378378   -0.000250
     11          1           0       -1.492681   -2.310341   -0.000117
     12          1           0        1.614188    3.113349    0.000109
     13          6           0       -3.052873    0.011320    0.000021
     14          6           0       -3.925356   -1.073112    0.000005
     15          6           0       -3.596243    1.335614    0.000062
     16          6           0       -5.330437   -0.896730    0.000042
     17          1           0       -3.553543   -2.094005   -0.000049
     18          6           0       -4.955357    1.529487    0.000101
     19          1           0       -2.921976    2.186476    0.000050
     20          6           0       -5.864301    0.434052    0.000095
     21          6           0       -6.229950   -2.000471    0.000028
     22          1           0       -5.353749    2.540622    0.000132
     23          6           0       -7.273187    0.608794    0.000134
     24          6           0       -7.592644   -1.797476    0.000066
     25          1           0       -5.824448   -3.009116   -0.000014
     26          1           0       -7.675701    1.618289    0.000174
     27          6           0       -8.119392   -0.480696    0.000121
     28          1           0       -8.269464   -2.646708    0.000055
     29          1           0       -9.195383   -0.333531    0.000151
     30          6           0        3.165939    0.785458   -0.000037
     31          6           0        3.697789   -0.502242    0.000025
     32          6           0        4.061208    1.901211   -0.000123
     33          6           0        5.097093   -0.717691   -0.000007
     34          1           0        3.032627   -1.362105    0.000115
     35          6           0        5.421585    1.714673   -0.000156
     36          1           0        3.677903    2.916653   -0.000153
     37          6           0        5.985468    0.407846   -0.000102
     38          6           0        5.647560   -2.031229    0.000055
     39          1           0        6.086838    2.573967   -0.000219
     40          6           0        7.386422    0.179814   -0.000135
     41          6           0        7.012354   -2.219940    0.000021
     42          1           0        4.969881   -2.880345    0.000131
     43          1           0        8.059050    1.033649   -0.000206
     44          6           0        7.889098   -1.105114   -0.000075
     45          1           0        7.422834   -3.225280    0.000069
     46          1           0        8.962990   -1.267513   -0.000101
 ---------------------------------------------------------------------
 Rotational constants (GHZ):      0.5442106      0.0576155      0.0520997
 Standard basis: 6-31+G(d,p) (6D, 7F)
 There are   650 symmetry adapted basis functions of A   symmetry.
 Integral buffers will be    262144 words long.
 Raffenetti 2 integral format.
 Two-electron integral symmetry is turned on.
   650 basis functions,  1072 primitive gaussians,   650 cartesian basis functions
   101 alpha electrons      101 beta electrons
       nuclear repulsion energy      2466.6145673971 Hartrees.
 NAtoms=   46 NActive=   46 NUniq=   46 SFac= 1.00D+00 NAtFMM=   50 NAOKFM=F Big=F
 One-electron integrals computed using PRISM.
 NBasis=   650 RedAO= T  NBF=   650
 NBsUse=   637 1.00D-06 NBFU=   637
 Harris functional with IExCor=20419 diagonalized for initial guess.
 ExpMin= 4.38D-02 ExpMax= 5.48D+03 ExpMxC= 8.25D+02 IAcc=2 IRadAn=         0 AccDes= 0.00D+00
 HarFok:  IExCor=20419 AccDes= 0.00D+00 IRadAn=         0 IDoV= 1
 ScaDFX=  1.000000  1.000000  1.000000  1.000000
 FoFCou: FMM=F IPFlag=           0 FMFlag=      100000 FMFlg1=           0
         NFxFlg=           0 DoJE=T BraDBF=F KetDBF=T FulRan=T
         Omega=  0.000000  0.000000  1.000000  0.000000  0.000000 ICntrl=     500 IOpCl=  0
         NMat0=    1 NMatS0=    1 NMatT0=    0 NMatD0=    1 NMtDS0=    0 NMtDT0=    0
         I1Cent=           4 NGrid=           0.
 Petite list used in FoFCou.
 Initial guess orbital symmetries:
       Occupied  (A) (A) (A) (A) (A) (A) (A) (A) (A) (A) (A) (A)
                 (A) (A) (A) (A) (A) (A) (A) (A) (A) (A) (A) (A)
                 (A) (A) (A) (A) (A) (A) (A) (A) (A) (A) (A) (A)
                 (A) (A) (A) (A) (A) (A) (A) (A) (A) (A) (A) (A)
                 (A) (A) (A) (A) (A) (A) (A) (A) (A) (A) (A) (A)
                 (A) (A) (A) (A) (A) (A) (A) (A) (A) (A) (A) (A)
                 (A) (A) (A) (A) (A) (A) (A) (A) (A) (A) (A) (A)
                 (A) (A) (A) (A) (A) (A) (A) (A) (A) (A) (A) (A)
                 (A) (A) (A) (A) (A)
       Virtual   (A) (A) (A) (A) (A) (A) (A) (A) (A) (A) (A) (A)
                 (A) (A) (A) (A) (A) (A) (A) (A) (A) (A) (A) (A)
                 (A) (A) (A) (A) (A) (A) (A) (A) (A) (A) (A) (A)
                 (A) (A) (A) (A) (A) (A) (A) (A) (A) (A) (A) (A)
                 (A) (A) (A) (A) (A) (A) (A) (A) (A) (A) (A) (A)
                 (A) (A) (A) (A) (A) (A) (A) (A) (A) (A) (A) (A)
                 (A) (A) (A) (A) (A) (A) (A) (A) (A) (A) (A) (A)
                 (A) (A) (A) (A) (A) (A) (A) (A) (A) (A) (A) (A)
                 (A) (A) (A) (A) (A) (A) (A) (A) (A) (A) (A) (A)
                 (A) (A) (A) (A) (A) (A) (A) (A) (A) (A) (A) (A)
                 (A) (A) (A) (A) (A) (A) (A) (A) (A) (A) (A) (A)
                 (A) (A) (A) (A) (A) (A) (A) (A) (A) (A) (A) (A)
                 (A) (A) (A) (A) (A) (A) (A) (A) (A) (A) (A) (A)
                 (A) (A) (A) (A) (A) (A) (A) (A) (A) (A) (A) (A)
                 (A) (A) (A) (A) (A) (A) (A) (A) (A) (A) (A) (A)
                 (A) (A) (A) (A) (A) (A) (A) (A) (A) (A) (A) (A)
                 (A) (A) (A) (A) (A) (A) (A) (A) (A) (A) (A) (A)
                 (A) (A) (A) (A) (A) (A) (A) (A) (A) (A) (A) (A)
                 (A) (A) (A) (A) (A) (A) (A) (A) (A) (A) (A) (A)
                 (A) (A) (A) (A) (A) (A) (A) (A) (A) (A) (A) (A)
                 (A) (A) (A) (A) (A) (A) (A) (A) (A) (A) (A) (A)
                 (A) (A) (A) (A) (A) (A) (A) (A) (A) (A) (A) (A)
                 (A) (A) (A) (A) (A) (A) (A) (A) (A) (A) (A) (A)
                 (A) (A) (A) (A) (A) (A) (A) (A) (A) (A) (A) (A)
                 (A) (A) (A) (A) (A) (A) (A) (A) (A) (A) (A) (A)
                 (A) (A) (A) (A) (A) (A) (A) (A) (A) (A) (A) (A)
                 (A) (A) (A) (A) (A) (A) (A) (A) (A) (A) (A) (A)
                 (A) (A) (A) (A) (A) (A) (A) (A) (A) (A) (A) (A)
                 (A) (A) (A) (A) (A) (A) (A) (A) (A) (A) (A) (A)
                 (A) (A) (A) (A) (A) (A) (A) (A) (A) (A) (A) (A)
                 (A) (A) (A) (A) (A) (A) (A) (A) (A) (A) (A) (A)
                 (A) (A) (A) (A) (A) (A) (A) (A) (A) (A) (A) (A)
                 (A) (A) (A) (A) (A) (A) (A) (A) (A) (A) (A) (A)
                 (A) (A) (A) (A) (A) (A) (A) (A) (A) (A) (A) (A)
                 (A) (A) (A) (A) (A) (A) (A) (A) (A) (A) (A) (A)
                 (A) (A) (A) (A) (A) (A) (A) (A) (A) (A) (A) (A)
                 (A) (A) (A) (A) (A) (A) (A) (A) (A) (A) (A) (A)
                 (A) (A) (A) (A) (A) (A) (A) (A) (A) (A) (A) (A)
                 (A) (A) (A) (A) (A) (A) (A) (A) (A) (A) (A) (A)
                 (A) (A) (A) (A) (A) (A) (A) (A) (A) (A) (A) (A)
                 (A) (A) (A) (A) (A) (A) (A) (A) (A) (A) (A) (A)
                 (A) (A) (A) (A) (A) (A) (A) (A) (A) (A) (A) (A)
                 (A) (A) (A) (A) (A) (A) (A) (A) (A) (A) (A) (A)
                 (A) (A) (A) (A) (A) (A) (A) (A) (A) (A) (A) (A)
                 (A) (A) (A) (A) (A) (A) (A) (A)
 The electronic state of the initial guess is 1-A.
 Requested convergence on RMS density matrix=1.00D-08 within 128 cycles.
 Requested convergence on MAX density matrix=1.00D-06.
 Requested convergence on             energy=1.00D-06.
 No special actions if energy rises.
 FoFJK:  IHMeth= 1 ICntrl=     0 DoSepK=T KAlg= 1 I1Cent= 0 FoldK=F
 FoFJK:  IHMeth= 1 ICntrl=     0 DoSepK=T KAlg= 1 I1Cent= 0 FoldK=F
 FoFJK:  IHMeth= 1 ICntrl=     0 DoSepK=T KAlg= 1 I1Cent= 0 FoldK=F
 FoFJK:  IHMeth= 1 ICntrl=     0 DoSepK=T KAlg= 1 I1Cent= 0 FoldK=F
 FoFJK:  IHMeth= 1 ICntrl=     0 DoSepK=T KAlg= 1 I1Cent= 0 FoldK=F
 FoFJK:  IHMeth= 1 ICntrl=     0 DoSepK=T KAlg= 1 I1Cent= 0 FoldK=F
 FoFJK:  IHMeth= 1 ICntrl=     0 DoSepK=T KAlg= 1 I1Cent= 0 FoldK=F
 FoFJK:  IHMeth= 1 ICntrl=     0 DoSepK=T KAlg= 1 I1Cent= 0 FoldK=F
 FoFJK:  IHMeth= 1 ICntrl=     0 DoSepK=T KAlg= 1 I1Cent= 0 FoldK=F
 FoFJK:  IHMeth= 1 ICntrl=     0 DoSepK=T KAlg= 1 I1Cent= 0 FoldK=F
 FoFJK:  IHMeth= 1 ICntrl=     0 DoSepK=T KAlg= 1 I1Cent= 0 FoldK=F
 FoFJK:  IHMeth= 1 ICntrl=     0 DoSepK=T KAlg= 1 I1Cent= 0 FoldK=F
 FoFJK:  IHMeth= 1 ICntrl=     0 DoSepK=T KAlg= 1 I1Cent= 0 FoldK=F
 FoFJK:  IHMeth= 1 ICntrl=     0 DoSepK=T KAlg= 1 I1Cent= 0 FoldK=F
 FoFJK:  IHMeth= 1 ICntrl=     0 DoSepK=T KAlg= 1 I1Cent= 0 FoldK=F
 FoFJK:  IHMeth= 1 ICntrl=     0 DoSepK=T KAlg= 1 I1Cent= 0 FoldK=F
 SCF Done:  E(RCAM-B3LYP) =  -1259.80517368     A.U. after   16 cycles
             Convg  =    0.8218D-08             -V/T =  2.0094
 ExpMin= 4.38D-02 ExpMax= 5.48D+03 ExpMxC= 8.25D+02 IAcc=3 IRadAn=         5 AccDes= 0.00D+00
 HarFok:  IExCor=  205 AccDes= 0.00D+00 IRadAn=         5 IDoV=-2
 ScaDFX=  1.000000  1.000000  1.000000  1.000000
 Range of M.O.s used for correlation:    31   637
 NBasis=   650 NAE=   101 NBE=   101 NFC=    30 NFV=     0
 NROrb=    607 NOA=    71 NOB=    71 NVA=   536 NVB=   536

 **** Warning!!: The largest alpha MO coefficient is  0.14606029D+03

 Orbital symmetries:
       Occupied  (A) (A) (A) (A) (A) (A) (A) (A) (A) (A) (A) (A)
                 (A) (A) (A) (A) (A) (A) (A) (A) (A) (A) (A) (A)
                 (A) (A) (A) (A) (A) (A) (A) (A) (A) (A) (A) (A)
                 (A) (A) (A) (A) (A) (A) (A) (A) (A) (A) (A) (A)
                 (A) (A) (A) (A) (A) (A) (A) (A) (A) (A) (A) (A)
                 (A) (A) (A) (A) (A) (A) (A) (A) (A) (A) (A) (A)
                 (A) (A) (A) (A) (A) (A) (A) (A) (A) (A) (A) (A)
                 (A) (A) (A) (A) (A) (A) (A) (A) (A) (A) (A) (A)
                 (A) (A) (A) (A) (A)
       Virtual   (A) (A) (A) (A) (A) (A) (A) (A) (A) (A) (A) (A)
                 (A) (A) (A) (A) (A) (A) (A) (A) (A) (A) (A) (A)
                 (A) (A) (A) (A) (A) (A) (A) (A) (A) (A) (A) (A)
                 (A) (A) (A) (A) (A) (A) (A) (A) (A) (A) (A) (A)
                 (A) (A) (A) (A) (A) (A) (A) (A) (A) (A) (A) (A)
                 (A) (A) (A) (A) (A) (A) (A) (A) (A) (A) (A) (A)
                 (A) (A) (A) (A) (A) (A) (A) (A) (A) (A) (A) (A)
                 (A) (A) (A) (A) (A) (A) (A) (A) (A) (A) (A) (A)
                 (A) (A) (A) (A) (A) (A) (A) (A) (A) (A) (A) (A)
                 (A) (A) (A) (A) (A) (A) (A) (A) (A) (A) (A) (A)
                 (A) (A) (A) (A) (A) (A) (A) (A) (A) (A) (A) (A)
                 (A) (A) (A) (A) (A) (A) (A) (A) (A) (A) (A) (A)
                 (A) (A) (A) (A) (A) (A) (A) (A) (A) (A) (A) (A)
                 (A) (A) (A) (A) (A) (A) (A) (A) (A) (A) (A) (A)
                 (A) (A) (A) (A) (A) (A) (A) (A) (A) (A) (A) (A)
                 (A) (A) (A) (A) (A) (A) (A) (A) (A) (A) (A) (A)
                 (A) (A) (A) (A) (A) (A) (A) (A) (A) (A) (A) (A)
                 (A) (A) (A) (A) (A) (A) (A) (A) (A) (A) (A) (A)
                 (A) (A) (A) (A) (A) (A) (A) (A) (A) (A) (A) (A)
                 (A) (A) (A) (A) (A) (A) (A) (A) (A) (A) (A) (A)
                 (A) (A) (A) (A) (A) (A) (A) (A) (A) (A) (A) (A)
                 (A) (A) (A) (A) (A) (A) (A) (A) (A) (A) (A) (A)
                 (A) (A) (A) (A) (A) (A) (A) (A) (A) (A) (A) (A)
                 (A) (A) (A) (A) (A) (A) (A) (A) (A) (A) (A) (A)
                 (A) (A) (A) (A) (A) (A) (A) (A) (A) (A) (A) (A)
                 (A) (A) (A) (A) (A) (A) (A) (A) (A) (A) (A) (A)
                 (A) (A) (A) (A) (A) (A) (A) (A) (A) (A) (A) (A)
                 (A) (A) (A) (A) (A) (A) (A) (A) (A) (A) (A) (A)
                 (A) (A) (A) (A) (A) (A) (A) (A) (A) (A) (A) (A)
                 (A) (A) (A) (A) (A) (A) (A) (A) (A) (A) (A) (A)
                 (A) (A) (A) (A) (A) (A) (A) (A) (A) (A) (A) (A)
                 (A) (A) (A) (A) (A) (A) (A) (A) (A) (A) (A) (A)
                 (A) (A) (A) (A) (A) (A) (A) (A) (A) (A) (A) (A)
                 (A) (A) (A) (A) (A) (A) (A) (A) (A) (A) (A) (A)
                 (A) (A) (A) (A) (A) (A) (A) (A) (A) (A) (A) (A)
                 (A) (A) (A) (A) (A) (A) (A) (A) (A) (A) (A) (A)
                 (A) (A) (A) (A) (A) (A) (A) (A) (A) (A) (A) (A)
                 (A) (A) (A) (A) (A) (A) (A) (A) (A) (A) (A) (A)
                 (A) (A) (A) (A) (A) (A) (A) (A) (A) (A) (A) (A)
                 (A) (A) (A) (A) (A) (A) (A) (A) (A) (A) (A) (A)
                 (A) (A) (A) (A) (A) (A) (A) (A) (A) (A) (A) (A)
                 (A) (A) (A) (A) (A) (A) (A) (A) (A) (A) (A) (A)
                 (A) (A) (A) (A) (A) (A) (A) (A) (A) (A) (A) (A)
                 (A) (A) (A) (A) (A) (A) (A) (A) (A) (A) (A) (A)
                 (A) (A) (A) (A) (A) (A) (A) (A)
    40 initial guesses have been made.
 Convergence on wavefunction:    0.001000000000000
 Iteration     1 Dimension    40 NMult    40
 CISAX will form    14 AO SS matrices at one time.
 FoFJK:  IHMeth= 1 ICntrl=     0 DoSepK=T KAlg= 1 I1Cent= 0 FoldK=F
 CoulSu:  requested number of processors reduced to:   2 ShMem   1 Linda.
 CoulSu:  requested number of processors reduced to:   2 ShMem   1 Linda.
 CalDSu:  requested number of processors reduced to:   1 ShMem   1 Linda.
 FoFJK:  IHMeth= 1 ICntrl=     0 DoSepK=T KAlg= 1 I1Cent= 0 FoldK=F
 CoulSu:  requested number of processors reduced to:   2 ShMem   1 Linda.
 CoulSu:  requested number of processors reduced to:   2 ShMem   1 Linda.
 CalDSu:  requested number of processors reduced to:   1 ShMem   1 Linda.
 FoFJK:  IHMeth= 1 ICntrl=     0 DoSepK=T KAlg= 1 I1Cent= 0 FoldK=F
 CoulSu:  requested number of processors reduced to:   3 ShMem   1 Linda.
 CoulSu:  requested number of processors reduced to:   3 ShMem   1 Linda.
 CalDSu:  requested number of processors reduced to:   2 ShMem   1 Linda.
 FoFJK:  IHMeth= 1 ICntrl=     0 DoSepK=T KAlg= 1 I1Cent= 0 FoldK=F
 CoulSu:  requested number of processors reduced to:   2 ShMem   1 Linda.
 FoFJK:  IHMeth= 1 ICntrl=     0 DoSepK=T KAlg= 1 I1Cent= 0 FoldK=F
 CoulSu:  requested number of processors reduced to:   2 ShMem   1 Linda.
 FoFJK:  IHMeth= 1 ICntrl=     0 DoSepK=T KAlg= 1 I1Cent= 0 FoldK=F
 CoulSu:  requested number of processors reduced to:   3 ShMem   1 Linda.
 New state      4 was old state      9
 New state      5 was old state     10
 New state      6 was old state      4
 New state      7 was old state      6
 New state      8 was old state      7
 New state      9 was old state      5
 No map to state     10
 Iteration     2 Dimension    60 NMult    60
 FoFJK:  IHMeth= 1 ICntrl=     0 DoSepK=T KAlg= 1 I1Cent= 0 FoldK=F
 CoulSu:  requested number of processors reduced to:   5 ShMem   1 Linda.
 CoulSu:  requested number of processors reduced to:   5 ShMem   1 Linda.
 CalDSu:  requested number of processors reduced to:   3 ShMem   1 Linda.
 FoFJK:  IHMeth= 1 ICntrl=     0 DoSepK=T KAlg= 1 I1Cent= 0 FoldK=F
 CoulSu:  requested number of processors reduced to:   5 ShMem   1 Linda.
 CoulSu:  requested number of processors reduced to:   5 ShMem   1 Linda.
 CalDSu:  requested number of processors reduced to:   3 ShMem   1 Linda.
 FoFJK:  IHMeth= 1 ICntrl=     0 DoSepK=T KAlg= 1 I1Cent= 0 FoldK=F
 CoulSu:  requested number of processors reduced to:   5 ShMem   1 Linda.
 FoFJK:  IHMeth= 1 ICntrl=     0 DoSepK=T KAlg= 1 I1Cent= 0 FoldK=F
 CoulSu:  requested number of processors reduced to:   5 ShMem   1 Linda.
 New state      2 was old state      3
 New state      3 was old state      2
 New state      7 was old state      8
 New state      8 was old state      7
 New state      9 was old state     10
 New state     10 was old state      9
 Iteration     3 Dimension    80 NMult    80
 FoFJK:  IHMeth= 1 ICntrl=     0 DoSepK=T KAlg= 1 I1Cent= 0 FoldK=F
 CoulSu:  requested number of processors reduced to:   5 ShMem   1 Linda.
 CoulSu:  requested number of processors reduced to:   5 ShMem   1 Linda.
 CalDSu:  requested number of processors reduced to:   3 ShMem   1 Linda.
 FoFJK:  IHMeth= 1 ICntrl=     0 DoSepK=T KAlg= 1 I1Cent= 0 FoldK=F
 CoulSu:  requested number of processors reduced to:   5 ShMem   1 Linda.
 CoulSu:  requested number of processors reduced to:   5 ShMem   1 Linda.
 CalDSu:  requested number of processors reduced to:   3 ShMem   1 Linda.
 FoFJK:  IHMeth= 1 ICntrl=     0 DoSepK=T KAlg= 1 I1Cent= 0 FoldK=F
 CoulSu:  requested number of processors reduced to:   5 ShMem   1 Linda.
 FoFJK:  IHMeth= 1 ICntrl=     0 DoSepK=T KAlg= 1 I1Cent= 0 FoldK=F
 CoulSu:  requested number of processors reduced to:   5 ShMem   1 Linda.
 Iteration     4 Dimension   100 NMult   100
 FoFJK:  IHMeth= 1 ICntrl=     0 DoSepK=T KAlg= 1 I1Cent= 0 FoldK=F
 CoulSu:  requested number of processors reduced to:   5 ShMem   1 Linda.
 CoulSu:  requested number of processors reduced to:   5 ShMem   1 Linda.
 CalDSu:  requested number of processors reduced to:   3 ShMem   1 Linda.
 FoFJK:  IHMeth= 1 ICntrl=     0 DoSepK=T KAlg= 1 I1Cent= 0 FoldK=F
 CoulSu:  requested number of processors reduced to:   5 ShMem   1 Linda.
 CoulSu:  requested number of processors reduced to:   5 ShMem   1 Linda.
 CalDSu:  requested number of processors reduced to:   3 ShMem   1 Linda.
 FoFJK:  IHMeth= 1 ICntrl=     0 DoSepK=T KAlg= 1 I1Cent= 0 FoldK=F
 CoulSu:  requested number of processors reduced to:   5 ShMem   1 Linda.
 FoFJK:  IHMeth= 1 ICntrl=     0 DoSepK=T KAlg= 1 I1Cent= 0 FoldK=F
 CoulSu:  requested number of processors reduced to:   5 ShMem   1 Linda.
 Iteration     5 Dimension   120 NMult   120
 FoFJK:  IHMeth= 1 ICntrl=     0 DoSepK=T KAlg= 1 I1Cent= 0 FoldK=F
 CoulSu:  requested number of processors reduced to:   5 ShMem   1 Linda.
 CoulSu:  requested number of processors reduced to:   5 ShMem   1 Linda.
 CalDSu:  requested number of processors reduced to:   3 ShMem   1 Linda.
 FoFJK:  IHMeth= 1 ICntrl=     0 DoSepK=T KAlg= 1 I1Cent= 0 FoldK=F
 CoulSu:  requested number of processors reduced to:   5 ShMem   1 Linda.
 CoulSu:  requested number of processors reduced to:   5 ShMem   1 Linda.
 CalDSu:  requested number of processors reduced to:   3 ShMem   1 Linda.
 FoFJK:  IHMeth= 1 ICntrl=     0 DoSepK=T KAlg= 1 I1Cent= 0 FoldK=F
 CoulSu:  requested number of processors reduced to:   5 ShMem   1 Linda.
 FoFJK:  IHMeth= 1 ICntrl=     0 DoSepK=T KAlg= 1 I1Cent= 0 FoldK=F
 CoulSu:  requested number of processors reduced to:   5 ShMem   1 Linda.
 Iteration     6 Dimension   134 NMult   134
 FoFJK:  IHMeth= 1 ICntrl=     0 DoSepK=T KAlg= 1 I1Cent= 0 FoldK=F
 CoulSu:  requested number of processors reduced to:   2 ShMem   1 Linda.
 CoulSu:  requested number of processors reduced to:   2 ShMem   1 Linda.
 CalDSu:  requested number of processors reduced to:   1 ShMem   1 Linda.
 FoFJK:  IHMeth= 1 ICntrl=     0 DoSepK=T KAlg= 1 I1Cent= 0 FoldK=F
 CoulSu:  requested number of processors reduced to:   2 ShMem   1 Linda.
 ***********************************************************************
 Excited states from <AA,BB:AA,BB> singles matrix:
 ***********************************************************************
 
 Ground to excited state transition densities written to RWF  633
 Ground to excited state transition electric dipole moments (Au):
       state          X           Y           Z        Dip. S.      Osc.
         1        -3.3638     -0.9187     -0.0001     12.1589      0.8061
         2         0.3530      0.1057      0.0000      0.1358      0.0125
         3        -0.0546     -0.7987      0.0000      0.6408      0.0595
         4        -0.4159      0.0553      0.0000      0.1760      0.0172
         5         0.0001      0.0000      0.0173      0.0003      0.0000
         6         0.3590      0.7574      0.0000      0.7025      0.0699
         7        -1.0464      0.5435      0.0001      1.3904      0.1479
         8         0.4001      0.2900      0.0000      0.2442      0.0266
         9         0.0001      0.0002      0.0023      0.0000      0.0000
        10        -1.9258      0.2422      0.0001      3.7675      0.4308
 Ground to excited state transition velocity dipole moments (Au):
       state          X           Y           Z        Dip. S.      Osc.
         1         0.3241      0.0950      0.0000      0.1141      0.7648
         2        -0.0470     -0.0182      0.0000      0.0025      0.0123
         3         0.0082      0.1195      0.0000      0.0143      0.0686
         4         0.0573     -0.0096      0.0000      0.0034      0.0154
         5         0.0000      0.0000     -0.0077      0.0001      0.0003
         6        -0.0509     -0.1177      0.0000      0.0164      0.0734
         7         0.1493     -0.0878      0.0000      0.0300      0.1253
         8        -0.0631     -0.0501      0.0000      0.0065      0.0265
         9         0.0000      0.0000     -0.0007      0.0000      0.0000
        10         0.3208     -0.0431      0.0000      0.1048      0.4072
 Ground to excited state transition magnetic dipole moments (Au):
       state          X           Y           Z
         1         0.0000      0.0001     -0.7461
         2         0.0001      0.0001      0.7402
         3        -0.0001      0.0001      0.1358
         4        -0.0001      0.0003     -1.3778
         5        -0.0033     -0.0052      0.0000
         6         0.0000      0.0003     -0.7483
         7         0.0000      0.0024     -1.7597
         8         0.0000     -0.0008     -0.3131
         9        -0.4109      0.6832      0.0003
        10         0.0000     -0.0004      1.1505
 Ground to excited state transition velocity quadrupole moments (Au):
       state          XX          YY          ZZ          XY          XZ          YZ
         1        -0.0327      0.1963     -0.0040     -0.4563     -0.0001      0.0000
         2        -0.0433      0.0415      0.0020      0.7938      0.0000      0.0001
         3        -1.4728      0.0871      0.0022      0.1580      0.0000     -0.0001
         4        -0.7094     -0.0955      0.0153     -0.4858     -0.0002      0.0000
         5         0.0001     -0.0001      0.0000      0.0001     -0.0061     -0.0054
         6         2.9480     -0.3218      0.0363      0.0592     -0.0003      0.0000
         7        -0.6456     -0.1146     -0.0139     -1.4849     -0.0024      0.0000
         8         0.5293      0.0198     -0.0065     -0.0495      0.0008     -0.0001
         9        -0.0005      0.0001      0.0000      0.0001     -0.0557     -0.0167
        10         0.6136     -0.0505      0.0222      0.8043      0.0004      0.0000
 <0|del|b> * <b|rxdel|0> + <0|del|b> * <b|delr+rdel|0>
 Rotatory Strengths (R) in cgs (10**-40 erg-esu-cm/Gauss)
       state          XX          YY          ZZ    R(velocity)
         1         0.0318     -0.0407      0.0175      0.0029
         2        -0.0484     -0.0297     -0.0051     -0.0277
         3         0.0364     -0.0049      0.0087      0.0134
         4        -0.0390     -0.0294     -0.0055     -0.0246
         5        -0.0021      0.0018     -0.0003     -0.0002
         6        -0.1457      0.0030     -0.0087     -0.0504
         7        -0.7102      0.0318     -0.0112     -0.2299
         8         0.1533     -0.0057      0.0010      0.0495
         9         0.0004     -0.0152     -0.0128     -0.0092
        10        -0.0454     -0.0192      0.0243     -0.0135
 1/2[<0|r|b>*<b|rxdel|0> + (<0|rxdel|b>*<b|r|0>)*]
 Rotatory Strengths (R) in cgs (10**-40 erg-esu-cm/Gauss)
       state          XX          YY          ZZ     R(length)
         1        -0.0032      0.0795     -0.0335      0.0143
         2        -0.0370     -0.0045      0.0044     -0.0123
         3        -0.0039      0.0330      0.0006      0.0099
         4        -0.0215     -0.0119      0.0216     -0.0039
         5         0.0001      0.0001     -0.0002      0.0000
         6        -0.0079     -0.1480     -0.0086     -0.0548
         7         0.0024     -0.9077      0.0773     -0.2760
         8         0.0011      0.1731     -0.0064      0.0559
         9         0.0145     -0.1103     -0.0005     -0.0321
        10         0.0290      0.0732     -0.0422      0.0200
  1/2[<0|del|b>*<b|r|0> + (<0|r|b>*<b|del|0>)*] (Au)
       state          X           Y           Z        Dip. S.   Osc.(frdel)
         1        -1.0903     -0.0873      0.0000      1.1776      0.7851
         2        -0.0166     -0.0019      0.0000      0.0185      0.0123
         3        -0.0004     -0.0954      0.0000      0.0959      0.0639
         4        -0.0238     -0.0005      0.0000      0.0244      0.0162
         5         0.0000      0.0000     -0.0001      0.0001      0.0001
         6        -0.0183     -0.0891      0.0000      0.1074      0.0716
         7        -0.1563     -0.0477      0.0000      0.2040      0.1360
         8        -0.0253     -0.0145      0.0000      0.0398      0.0265
         9         0.0000      0.0000      0.0000      0.0000      0.0000
        10        -0.6178     -0.0104      0.0000      0.6282      0.4188

 Excitation energies and oscillator strengths:
 
 Excited State   1:      Singlet-A      2.7061 eV  458.16 nm  f=0.8061  <S**2>=0.000
     101 ->102         0.69812
 This state for optimization and/or second-order correction.
 Total Energy, E(TD-HF/TD-KS) =  -1259.70572556    
 Copying the excited state density for this state as the 1-particle RhoCI density.
 
 Excited State   2:      Singlet-A      3.7556 eV  330.13 nm  f=0.0125  <S**2>=0.000
      96 ->102         0.18120
      99 ->102         0.43123
     100 ->102        -0.41360
     100 ->103         0.16061
     100 ->105        -0.11356
     101 ->104         0.11519
 
 Excited State   3:      Singlet-A      3.7929 eV  326.89 nm  f=0.0595  <S**2>=0.000
      96 ->102         0.23134
      98 ->104         0.10456
      99 ->102         0.36251
      99 ->103         0.18094
     100 ->102         0.46582
     101 ->105         0.11790
 
 Excited State   4:      Singlet-A      3.9820 eV  311.36 nm  f=0.0172  <S**2>=0.000
      96 ->102         0.54985
      96 ->108         0.10788
      98 ->102        -0.21129
      99 ->102        -0.23218
     101 ->103        -0.12518
     101 ->104        -0.12454
 
 Excited State   5:      Singlet-A      4.0195 eV  308.46 nm  f=0.0000  <S**2>=0.000
      95 ->102         0.65875
      95 ->108         0.14100
 
 Excited State   6:      Singlet-A      4.0640 eV  305.08 nm  f=0.0699  <S**2>=0.000
      96 ->102         0.17080
     100 ->104        -0.11534
     101 ->103         0.62496
     101 ->105        -0.10204
 
 Excited State   7:      Singlet-A      4.3425 eV  285.52 nm  f=0.1479  <S**2>=0.000
      97 ->102         0.38341
      98 ->103         0.18023
      99 ->102        -0.18967
      99 ->104        -0.12023
     100 ->103        -0.14375
     100 ->105        -0.16087
     101 ->104         0.43836
 
 Excited State   8:      Singlet-A      4.4423 eV  279.10 nm  f=0.0266  <S**2>=0.000
      96 ->102         0.16026
      97 ->103         0.18447
      98 ->102         0.41086
     100 ->102        -0.16411
     100 ->104        -0.13431
     100 ->108        -0.11428
     101 ->103        -0.12084
     101 ->104         0.10255
     101 ->105         0.36037
 
 Excited State   9:      Singlet-A      4.4714 eV  277.28 nm  f=0.0000  <S**2>=0.000
      94 ->102         0.62738
      94 ->108         0.14405
      95 ->103         0.15589
      95 ->105        -0.11034
      95 ->117         0.12702
 
 Excited State  10:      Singlet-A      4.6668 eV  265.67 nm  f=0.4308  <S**2>=0.000
      97 ->102         0.50296
     101 ->104        -0.40626
     101 ->105         0.13140
 SavETr:  write IOETrn=   770 NScale= 10 NData=  16 NLR=1 LETran=     180.

 **********************************************************************

            Population analysis using the SCF density.

 **********************************************************************

 Orbital symmetries:
       Occupied  (A) (A) (A) (A) (A) (A) (A) (A) (A) (A) (A) (A)
                 (A) (A) (A) (A) (A) (A) (A) (A) (A) (A) (A) (A)
                 (A) (A) (A) (A) (A) (A) (A) (A) (A) (A) (A) (A)
                 (A) (A) (A) (A) (A) (A) (A) (A) (A) (A) (A) (A)
                 (A) (A) (A) (A) (A) (A) (A) (A) (A) (A) (A) (A)
                 (A) (A) (A) (A) (A) (A) (A) (A) (A) (A) (A) (A)
                 (A) (A) (A) (A) (A) (A) (A) (A) (A) (A) (A) (A)
                 (A) (A) (A) (A) (A) (A) (A) (A) (A) (A) (A) (A)
                 (A) (A) (A) (A) (A)
       Virtual   (A) (A) (A) (A) (A) (A) (A) (A) (A) (A) (A) (A)
                 (A) (A) (A) (A) (A) (A) (A) (A) (A) (A) (A) (A)
                 (A) (A) (A) (A) (A) (A) (A) (A) (A) (A) (A) (A)
                 (A) (A) (A) (A) (A) (A) (A) (A) (A) (A) (A) (A)
                 (A) (A) (A) (A) (A) (A) (A) (A) (A) (A) (A) (A)
                 (A) (A) (A) (A) (A) (A) (A) (A) (A) (A) (A) (A)
                 (A) (A) (A) (A) (A) (A) (A) (A) (A) (A) (A) (A)
                 (A) (A) (A) (A) (A) (A) (A) (A) (A) (A) (A) (A)
                 (A) (A) (A) (A) (A) (A) (A) (A) (A) (A) (A) (A)
                 (A) (A) (A) (A) (A) (A) (A) (A) (A) (A) (A) (A)
                 (A) (A) (A) (A) (A) (A) (A) (A) (A) (A) (A) (A)
                 (A) (A) (A) (A) (A) (A) (A) (A) (A) (A) (A) (A)
                 (A) (A) (A) (A) (A) (A) (A) (A) (A) (A) (A) (A)
                 (A) (A) (A) (A) (A) (A) (A) (A) (A) (A) (A) (A)
                 (A) (A) (A) (A) (A) (A) (A) (A) (A) (A) (A) (A)
                 (A) (A) (A) (A) (A) (A) (A) (A) (A) (A) (A) (A)
                 (A) (A) (A) (A) (A) (A) (A) (A) (A) (A) (A) (A)
                 (A) (A) (A) (A) (A) (A) (A) (A) (A) (A) (A) (A)
                 (A) (A) (A) (A) (A) (A) (A) (A) (A) (A) (A) (A)
                 (A) (A) (A) (A) (A) (A) (A) (A) (A) (A) (A) (A)
                 (A) (A) (A) (A) (A) (A) (A) (A) (A) (A) (A) (A)
                 (A) (A) (A) (A) (A) (A) (A) (A) (A) (A) (A) (A)
                 (A) (A) (A) (A) (A) (A) (A) (A) (A) (A) (A) (A)
                 (A) (A) (A) (A) (A) (A) (A) (A) (A) (A) (A) (A)
                 (A) (A) (A) (A) (A) (A) (A) (A) (A) (A) (A) (A)
                 (A) (A) (A) (A) (A) (A) (A) (A) (A) (A) (A) (A)
                 (A) (A) (A) (A) (A) (A) (A) (A) (A) (A) (A) (A)
                 (A) (A) (A) (A) (A) (A) (A) (A) (A) (A) (A) (A)
                 (A) (A) (A) (A) (A) (A) (A) (A) (A) (A) (A) (A)
                 (A) (A) (A) (A) (A) (A) (A) (A) (A) (A) (A) (A)
                 (A) (A) (A) (A) (A) (A) (A) (A) (A) (A) (A) (A)
                 (A) (A) (A) (A) (A) (A) (A) (A) (A) (A) (A) (A)
                 (A) (A) (A) (A) (A) (A) (A) (A) (A) (A) (A) (A)
                 (A) (A) (A) (A) (A) (A) (A) (A) (A) (A) (A) (A)
                 (A) (A) (A) (A) (A) (A) (A) (A) (A) (A) (A) (A)
                 (A) (A) (A) (A) (A) (A) (A) (A) (A) (A) (A) (A)
                 (A) (A) (A) (A) (A) (A) (A) (A) (A) (A) (A) (A)
                 (A) (A) (A) (A) (A) (A) (A) (A) (A) (A) (A) (A)
                 (A) (A) (A) (A) (A) (A) (A) (A) (A) (A) (A) (A)
                 (A) (A) (A) (A) (A) (A) (A) (A) (A) (A) (A) (A)
                 (A) (A) (A) (A) (A) (A) (A) (A) (A) (A) (A) (A)
                 (A) (A) (A) (A) (A) (A) (A) (A) (A) (A) (A) (A)
                 (A) (A) (A) (A) (A) (A) (A) (A) (A) (A) (A) (A)
                 (A) (A) (A) (A) (A) (A) (A) (A) (A) (A) (A) (A)
                 (A) (A) (A) (A) (A) (A) (A) (A)
 The electronic state is 1-A.
 Alpha  occ. eigenvalues --  -19.21497 -19.21339 -14.46745 -14.46633 -10.38936
 Alpha  occ. eigenvalues --  -10.38722 -10.35271 -10.35106 -10.30275 -10.30229
 Alpha  occ. eigenvalues --  -10.29466 -10.29328 -10.29324 -10.29222 -10.29193
 Alpha  occ. eigenvalues --  -10.29020 -10.28688 -10.28484 -10.28448 -10.28382
 Alpha  occ. eigenvalues --  -10.28356 -10.28257 -10.28212 -10.28176 -10.28114
 Alpha  occ. eigenvalues --  -10.28039 -10.27979 -10.27688 -10.27575 -10.27350
 Alpha  occ. eigenvalues --   -1.13923  -1.13321  -1.06698  -1.05378  -0.97685
 Alpha  occ. eigenvalues --   -0.97656  -0.92795  -0.92703  -0.89902  -0.87683
 Alpha  occ. eigenvalues --   -0.87491  -0.86008  -0.85357  -0.82491  -0.82012
 Alpha  occ. eigenvalues --   -0.80086  -0.77256  -0.76289  -0.72254  -0.71541
 Alpha  occ. eigenvalues --   -0.70648  -0.69749  -0.68997  -0.68775  -0.65598
 Alpha  occ. eigenvalues --   -0.62484  -0.62059  -0.60950  -0.60080  -0.59857
 Alpha  occ. eigenvalues --   -0.58901  -0.58190  -0.55916  -0.55002  -0.54725
 Alpha  occ. eigenvalues --   -0.53846  -0.53434  -0.53095  -0.52593  -0.51669
 Alpha  occ. eigenvalues --   -0.51031  -0.50567  -0.50289  -0.49967  -0.49853
 Alpha  occ. eigenvalues --   -0.49577  -0.49050  -0.48348  -0.48151  -0.47892
 Alpha  occ. eigenvalues --   -0.46119  -0.45013  -0.44660  -0.44232  -0.42807
 Alpha  occ. eigenvalues --   -0.42236  -0.42145  -0.40824  -0.40796  -0.39655
 Alpha  occ. eigenvalues --   -0.39346  -0.36162  -0.36099  -0.35049  -0.33250
 Alpha  occ. eigenvalues --   -0.33249  -0.31835  -0.31487  -0.28859  -0.28482
 Alpha  occ. eigenvalues --   -0.24555
 Alpha virt. eigenvalues --   -0.07297  -0.02168  -0.00974   0.00159   0.02130
 Alpha virt. eigenvalues --    0.02431   0.02646   0.03355   0.03464   0.03754
 Alpha virt. eigenvalues --    0.04120   0.04263   0.04685   0.05566   0.05682
 Alpha virt. eigenvalues --    0.05746   0.06114   0.06599   0.07218   0.07319
 Alpha virt. eigenvalues --    0.07885   0.08094   0.08186   0.08763   0.08797
 Alpha virt. eigenvalues --    0.08958   0.09387   0.09667   0.10073   0.10409
 Alpha virt. eigenvalues --    0.10773   0.10904   0.11688   0.11912   0.12291
 Alpha virt. eigenvalues --    0.12684   0.12803   0.13237   0.13328   0.14114
 Alpha virt. eigenvalues --    0.14348   0.14678   0.15025   0.15072   0.15242
 Alpha virt. eigenvalues --    0.15747   0.15843   0.15869   0.16869   0.17034
 Alpha virt. eigenvalues --    0.17071   0.17248   0.17781   0.18021   0.18215
 Alpha virt. eigenvalues --    0.18388   0.18823   0.19185   0.19432   0.19480
 Alpha virt. eigenvalues --    0.19639   0.19922   0.19996   0.20391   0.20680
 Alpha virt. eigenvalues --    0.20892   0.21670   0.22080   0.22091   0.22324
 Alpha virt. eigenvalues --    0.22490   0.22728   0.23014   0.23319   0.23348
 Alpha virt. eigenvalues --    0.23574   0.23851   0.24036   0.24384   0.24499
 Alpha virt. eigenvalues --    0.24603   0.24771   0.25294   0.25691   0.25768
 Alpha virt. eigenvalues --    0.25824   0.26051   0.26172   0.26309   0.26947
 Alpha virt. eigenvalues --    0.27006   0.27209   0.27323   0.28081   0.28161
 Alpha virt. eigenvalues --    0.28163   0.28326   0.28676   0.28846   0.29000
 Alpha virt. eigenvalues --    0.29296   0.29555   0.29615   0.29719   0.30385
 Alpha virt. eigenvalues --    0.30631   0.30777   0.31087   0.31424   0.31707
 Alpha virt. eigenvalues --    0.31942   0.32163   0.32364   0.32757   0.32918
 Alpha virt. eigenvalues --    0.33127   0.33659   0.34049   0.34593   0.34889
 Alpha virt. eigenvalues --    0.35149   0.35492   0.35929   0.36257   0.36446
 Alpha virt. eigenvalues --    0.36939   0.37043   0.37595   0.37753   0.37878
 Alpha virt. eigenvalues --    0.38187   0.38713   0.39140   0.39221   0.39506
 Alpha virt. eigenvalues --    0.39977   0.40383   0.41009   0.41496   0.42094
 Alpha virt. eigenvalues --    0.42556   0.42734   0.43787   0.44668   0.44974
 Alpha virt. eigenvalues --    0.45161   0.45982   0.46941   0.47198   0.47853
 Alpha virt. eigenvalues --    0.49653   0.50040   0.50766   0.52053   0.52223
 Alpha virt. eigenvalues --    0.54079   0.54869   0.56308   0.56646   0.57403
 Alpha virt. eigenvalues --    0.57739   0.58471   0.58959   0.61276   0.62750
 Alpha virt. eigenvalues --    0.64393   0.65742   0.66115   0.66651   0.69944
 Alpha virt. eigenvalues --    0.70408   0.71000   0.71059   0.71313   0.72532
 Alpha virt. eigenvalues --    0.73379   0.73676   0.73998   0.74310   0.74425
 Alpha virt. eigenvalues --    0.75559   0.76134   0.76556   0.76700   0.77657
 Alpha virt. eigenvalues --    0.77684   0.78035   0.78102   0.78300   0.78314
 Alpha virt. eigenvalues --    0.78511   0.78646   0.79432   0.79635   0.79708
 Alpha virt. eigenvalues --    0.80898   0.80963   0.81333   0.81773   0.81842
 Alpha virt. eigenvalues --    0.82196   0.82347   0.83189   0.83381   0.84282
 Alpha virt. eigenvalues --    0.85372   0.85410   0.85530   0.85764   0.86092
 Alpha virt. eigenvalues --    0.88181   0.88280   0.88382   0.89021   0.89637
 Alpha virt. eigenvalues --    0.90856   0.92036   0.92358   0.92527   0.93228
 Alpha virt. eigenvalues --    0.94105   0.94517   0.95225   0.95526   0.96715
 Alpha virt. eigenvalues --    0.98149   0.98559   0.99381   1.00103   1.01051
 Alpha virt. eigenvalues --    1.01266   1.02060   1.03666   1.04449   1.04935
 Alpha virt. eigenvalues --    1.05362   1.05551   1.06109   1.06943   1.08380
 Alpha virt. eigenvalues --    1.08739   1.11056   1.11302   1.12824   1.13651
 Alpha virt. eigenvalues --    1.14217   1.14895   1.15179   1.16445   1.17419
 Alpha virt. eigenvalues --    1.18555   1.19059   1.20524   1.20853   1.21962
 Alpha virt. eigenvalues --    1.22109   1.23346   1.23930   1.24439   1.24487
 Alpha virt. eigenvalues --    1.25502   1.26063   1.26349   1.27029   1.27702
 Alpha virt. eigenvalues --    1.28355   1.28364   1.29305   1.29562   1.30228
 Alpha virt. eigenvalues --    1.30716   1.30881   1.31693   1.32887   1.33518
 Alpha virt. eigenvalues --    1.33696   1.34230   1.35328   1.36360   1.36438
 Alpha virt. eigenvalues --    1.37160   1.37324   1.38256   1.39279   1.39567
 Alpha virt. eigenvalues --    1.39663   1.40076   1.40933   1.41092   1.41182
 Alpha virt. eigenvalues --    1.41511   1.42233   1.42819   1.42992   1.43758
 Alpha virt. eigenvalues --    1.44256   1.44990   1.45323   1.46053   1.46457
 Alpha virt. eigenvalues --    1.46608   1.46988   1.47145   1.48283   1.48603
 Alpha virt. eigenvalues --    1.49736   1.49909   1.50564   1.51136   1.51476
 Alpha virt. eigenvalues --    1.52606   1.54327   1.56837   1.58004   1.60071
 Alpha virt. eigenvalues --    1.61154   1.62531   1.62830   1.63672   1.66577
 Alpha virt. eigenvalues --    1.67948   1.69008   1.69652   1.72873   1.80115
 Alpha virt. eigenvalues --    1.81248   1.82630   1.83313   1.84066   1.84248
 Alpha virt. eigenvalues --    1.84603   1.85917   1.86632   1.87656   1.87829
 Alpha virt. eigenvalues --    1.87989   1.89041   1.89235   1.89521   1.90444
 Alpha virt. eigenvalues --    1.92694   1.94598   1.95004   1.95186   1.95605
 Alpha virt. eigenvalues --    1.95911   1.96232   1.96932   1.97141   1.97574
 Alpha virt. eigenvalues --    1.97762   1.98568   1.99538   2.00040   2.00346
 Alpha virt. eigenvalues --    2.00524   2.00922   2.01855   2.02139   2.03974
 Alpha virt. eigenvalues --    2.05932   2.06132   2.06492   2.06562   2.06659
 Alpha virt. eigenvalues --    2.08921   2.09270   2.09312   2.09483   2.09760
 Alpha virt. eigenvalues --    2.10443   2.11618   2.12575   2.13750   2.14672
 Alpha virt. eigenvalues --    2.15438   2.16782   2.18116   2.19491   2.20996
 Alpha virt. eigenvalues --    2.21045   2.22693   2.23273   2.23822   2.26207
 Alpha virt. eigenvalues --    2.27466   2.28373   2.28811   2.28812   2.30942
 Alpha virt. eigenvalues --    2.31096   2.34696   2.34766   2.35076   2.35998
 Alpha virt. eigenvalues --    2.36303   2.36472   2.38560   2.40346   2.41902
 Alpha virt. eigenvalues --    2.41939   2.43025   2.43362   2.44833   2.45038
 Alpha virt. eigenvalues --    2.45141   2.45396   2.46320   2.47205   2.47825
 Alpha virt. eigenvalues --    2.48632   2.48686   2.49797   2.51373   2.51475
 Alpha virt. eigenvalues --    2.52302   2.53001   2.54986   2.55599   2.55703
 Alpha virt. eigenvalues --    2.56928   2.57954   2.59223   2.60099   2.60294
 Alpha virt. eigenvalues --    2.61170   2.62009   2.62086   2.63355   2.64201
 Alpha virt. eigenvalues --    2.64543   2.65289   2.65977   2.66089   2.66500
 Alpha virt. eigenvalues --    2.66542   2.66907   2.68248   2.69025   2.69825
 Alpha virt. eigenvalues --    2.70076   2.71532   2.71857   2.72404   2.74382
 Alpha virt. eigenvalues --    2.75512   2.76331   2.76825   2.78191   2.79198
 Alpha virt. eigenvalues --    2.79980   2.80497   2.81208   2.81232   2.81517
 Alpha virt. eigenvalues --    2.84254   2.85690   2.86460   2.87576   2.87604
 Alpha virt. eigenvalues --    2.90058   2.92802   2.94681   2.95265   2.98519
 Alpha virt. eigenvalues --    3.00848   3.02191   3.04968   3.05736   3.06361
 Alpha virt. eigenvalues --    3.09119   3.10349   3.12411   3.13584   3.13877
 Alpha virt. eigenvalues --    3.15636   3.17830   3.19936   3.22115   3.23981
 Alpha virt. eigenvalues --    3.25086   3.25463   3.29552   3.33106   3.33472
 Alpha virt. eigenvalues --    3.33812   3.34694   3.36085   3.37005   3.37386
 Alpha virt. eigenvalues --    3.42191   3.42829   3.44652   3.45128   3.49510
 Alpha virt. eigenvalues --    3.54725   3.56379   3.56921   3.57171   3.59013
 Alpha virt. eigenvalues --    3.63907   3.65674   3.82252   3.82765   3.94690
 Alpha virt. eigenvalues --    3.94850   4.31455   4.32680   4.33786   4.37327
 Alpha virt. eigenvalues --    4.37968   4.38951   4.39583   4.41085   4.41640
 Alpha virt. eigenvalues --    4.42312   4.42838   4.44067   4.46806   4.49042
 Alpha virt. eigenvalues --    4.50214   4.51232   4.52833   4.54657   4.55952
 Alpha virt. eigenvalues --    4.61275   4.61940   4.64869   4.69852   4.75488
 Alpha virt. eigenvalues --    4.82537   4.87710   4.99243   5.00863   5.12211
 Alpha virt. eigenvalues --    5.20591
          Condensed to atoms (all electrons):
              1          2          3          4          5          6
     1  N    7.414013   0.517084  -0.214022  -0.140642  -0.311678  -0.030526
     2  C    0.517084   8.182502  -0.371864  -0.260157  -2.393910  -0.219920
     3  C   -0.214022  -0.371864   7.984415  -0.211231  -0.336521   0.489916
     4  C   -0.140642  -0.260157  -0.211231   8.286977  -0.507166  -0.201656
     5  C   -0.311678  -2.393910  -0.336521  -0.507166  11.232906   0.329877
     6  C   -0.030526  -0.219920   0.489916  -0.201656   0.329877   7.989001
     7  C    0.031290   0.266327  -0.104017  -1.079782  -0.988490  -1.031740
     8  N    0.007038  -0.017610  -0.011099  -0.116726  -0.200866  -0.219124
     9  O   -0.082519   0.204621  -0.038258  -0.011188   0.058263   0.026395
    10  O   -0.004711  -0.009644  -0.010889  -0.096549   0.068372  -0.025618
    11  H    0.000314   0.000840  -0.006478   0.058342   0.025003  -0.065795
    12  H    0.311900   0.006281  -0.084857   0.055554  -0.028357  -0.005449
    13  C   -0.052732  -0.817269  -0.376816   0.037141   1.195658  -0.312249
    14  C    0.006899  -0.117106   0.039606   0.034539   0.643743  -0.393033
    15  C    0.038267   0.709438  -0.075301   0.267253  -1.536564  -0.291728
    16  C   -0.003235  -0.139845  -0.122417   0.232623  -0.613250   0.358016
    17  H   -0.000077  -0.008084   0.000234   0.000207  -0.021859   0.109777
    18  C    0.015354   0.242723   0.033415   0.136422  -0.243994  -0.422961
    19  H    0.000871   0.045821   0.015441  -0.012386   0.019060  -0.001578
    20  C    0.002183   0.061708   0.016090   0.012939   0.158639  -0.589142
    21  C    0.000204   0.015509  -0.009772   0.016564  -0.151254  -0.044882
    22  H   -0.000019  -0.004152   0.000071  -0.000256   0.002970  -0.000653
    23  C    0.000142   0.039667  -0.004445   0.014601  -0.159498   0.057755
    24  C    0.000037  -0.001678  -0.000498   0.006845  -0.007991  -0.042367
    25  H    0.000000  -0.000026   0.000001   0.000006  -0.000415   0.005281
    26  H    0.000000  -0.000049   0.000000   0.000008  -0.000018   0.000649
    27  C    0.000043   0.001242   0.000217   0.002449   0.010645  -0.058078
    28  H    0.000000   0.000000   0.000000   0.000001  -0.000035   0.000242
    29  H    0.000000   0.000000   0.000000   0.000000   0.000001  -0.000023
    30  C   -0.277462  -0.259677   0.126760  -0.338519   0.831463  -0.323646
    31  C   -0.078075  -0.563442  -0.561881   0.619291   0.526783   0.147135
    32  C    0.208594   0.390094  -0.543498  -0.242276  -1.064429  -0.042901
    33  C   -0.096398  -0.194346   0.241568  -0.034535   0.408793   0.031846
    34  H   -0.000557  -0.004143   0.029075   0.067465   0.006802   0.013305
    35  C    0.120957   0.166758  -0.118295  -0.116317  -0.351263  -0.024700
    36  H   -0.010144   0.005091   0.061646  -0.001323  -0.004212   0.001154
    37  C    0.067343   0.113477  -0.970086   0.124602  -0.215064  -0.020678
    38  C   -0.013890  -0.054702   0.103651  -0.150025   0.112806   0.011890
    39  H    0.000623  -0.000120  -0.007634   0.000418   0.000863   0.000003
    40  C   -0.008056   0.017302   0.755646  -0.298796   0.048892  -0.012615
    41  C    0.000978  -0.005004  -0.126449   0.068198  -0.006415   0.007949
    42  H   -0.000001   0.000052   0.001026   0.001752  -0.000471   0.000216
    43  H   -0.000002  -0.000001   0.000435   0.000099   0.000005   0.000000
    44  C    0.001841   0.001266  -0.117632   0.028625  -0.007967   0.000787
    45  H    0.000000   0.000001   0.000105  -0.000112   0.000000   0.000000
    46  H    0.000000   0.000000   0.000050   0.000013   0.000000   0.000000
              7          8          9         10         11         12
     1  N    0.031290   0.007038  -0.082519  -0.004711   0.000314   0.311900
     2  C    0.266327  -0.017610   0.204621  -0.009644   0.000840   0.006281
     3  C   -0.104017  -0.011099  -0.038258  -0.010889  -0.006478  -0.084857
     4  C   -1.079782  -0.116726  -0.011188  -0.096549   0.058342   0.055554
     5  C   -0.988490  -0.200866   0.058263   0.068372   0.025003  -0.028357
     6  C   -1.031740  -0.219124   0.026395  -0.025618  -0.065795  -0.005449
     7  C    7.952828   0.417722   0.001503   0.286226  -0.057899   0.014909
     8  N    0.417722   7.393837  -0.003414  -0.082216   0.310979   0.000238
     9  O    0.001503  -0.003414   8.431313   0.000104   0.000005   0.002436
    10  O    0.286226  -0.082216   0.000104   8.448823   0.002385   0.000011
    11  H   -0.057899   0.310979   0.000005   0.002385   0.400291   0.000000
    12  H    0.014909   0.000238   0.002436   0.000011   0.000000   0.399070
    13  C    0.097452   0.019474   0.126181   0.028796  -0.046263  -0.003753
    14  C   -0.357571   0.073791  -0.004725  -0.003827   0.067545  -0.000372
    15  C    0.117601  -0.022466  -0.105735  -0.003458  -0.007219   0.003399
    16  C   -0.065527  -0.013612   0.001010   0.000576   0.015768  -0.000074
    17  H   -0.004581  -0.014311   0.000020   0.000243   0.005574   0.000000
    18  C   -0.031955  -0.022809  -0.081933   0.000083  -0.001251   0.000356
    19  H    0.006847  -0.000081  -0.004465  -0.000003   0.000000  -0.000002
    20  C   -0.004261   0.009932  -0.011829  -0.000450   0.002660   0.000079
    21  C    0.038945  -0.022315  -0.000211  -0.000311  -0.001384   0.000000
    22  H   -0.000120   0.000091   0.000110   0.000000   0.000000   0.000000
    23  C    0.024433  -0.016711  -0.001215  -0.000141  -0.000081   0.000001
    24  C   -0.005913  -0.000454  -0.000056   0.000044  -0.001090   0.000000
    25  H   -0.000109  -0.000067   0.000000   0.000000   0.000006   0.000000
    26  H   -0.000004  -0.000001   0.000000   0.000000   0.000000   0.000000
    27  C   -0.002638   0.000947  -0.000048   0.000008   0.000197   0.000000
    28  H    0.000002   0.000000   0.000000   0.000000   0.000000   0.000000
    29  H    0.000000   0.000000   0.000000   0.000000   0.000000   0.000000
    30  C    0.142568  -0.016839   0.046741   0.027352  -0.003347  -0.158900
    31  C   -0.460917  -0.025780   0.015133  -0.046227   0.002956  -0.025588
    32  C    0.438095  -0.000320  -0.031997  -0.016646  -0.000737   0.123385
    33  C   -0.285940  -0.003059   0.001073  -0.035243  -0.000132  -0.013760
    34  H   -0.008986   0.001664   0.000001  -0.004506  -0.000004   0.000000
    35  C    0.155634  -0.001016  -0.004892   0.002388  -0.000044   0.080505
    36  H   -0.002540  -0.000048   0.000314   0.000014   0.000000   0.005254
    37  C    0.123949   0.002273  -0.001420  -0.027525  -0.000041   0.018255
    38  C   -0.130254  -0.007344   0.000349   0.039727   0.000094  -0.000750
    39  H   -0.000209   0.000000   0.000000  -0.000001   0.000000  -0.000001
    40  C    0.004616  -0.000660  -0.000243  -0.000568   0.000000   0.000727
    41  C   -0.010419  -0.001341   0.000027   0.012596   0.000005   0.000018
    42  H    0.000776   0.000001   0.000000  -0.000442   0.000000   0.000000
    43  H   -0.000008   0.000000   0.000000   0.000000   0.000000   0.000000
    44  C    0.006133   0.000103   0.000006  -0.000351   0.000000   0.000048
    45  H    0.000033   0.000000   0.000000   0.000002   0.000000   0.000000
    46  H   -0.000002   0.000000   0.000000   0.000000   0.000000   0.000000
             13         14         15         16         17         18
     1  N   -0.052732   0.006899   0.038267  -0.003235  -0.000077   0.015354
     2  C   -0.817269  -0.117106   0.709438  -0.139845  -0.008084   0.242723
     3  C   -0.376816   0.039606  -0.075301  -0.122417   0.000234   0.033415
     4  C    0.037141   0.034539   0.267253   0.232623   0.000207   0.136422
     5  C    1.195658   0.643743  -1.536564  -0.613250  -0.021859  -0.243994
     6  C   -0.312249  -0.393033  -0.291728   0.358016   0.109777  -0.422961
     7  C    0.097452  -0.357571   0.117601  -0.065527  -0.004581  -0.031955
     8  N    0.019474   0.073791  -0.022466  -0.013612  -0.014311  -0.022809
     9  O    0.126181  -0.004725  -0.105735   0.001010   0.000020  -0.081933
    10  O    0.028796  -0.003827  -0.003458   0.000576   0.000243   0.000083
    11  H   -0.046263   0.067545  -0.007219   0.015768   0.005574  -0.001251
    12  H   -0.003753  -0.000372   0.003399  -0.000074   0.000000   0.000356
    13  C   10.274934   1.461986  -2.109080  -0.652800  -0.136697  -1.904528
    14  C    1.461986   7.542646  -1.492282   0.335570   0.313878  -0.596859
    15  C   -2.109080  -1.492282  10.200824  -0.288664  -0.035640   1.911790
    16  C   -0.652800   0.335570  -0.288664  10.924325   0.062636  -1.287997
    17  H   -0.136697   0.313878  -0.035640   0.062636   0.608741  -0.021802
    18  C   -1.904528  -0.596859   1.911790  -1.287997  -0.021802   7.752245
    19  H   -0.065789   0.015772   0.330387  -0.032979  -0.000133  -0.028965
    20  C    1.528169   1.517286  -3.394069   0.575422  -0.026573  -2.043700
    21  C   -1.050950  -1.950743   1.101724  -2.196001   0.049746   1.192697
    22  H    0.055997  -0.002074  -0.048921   0.029709   0.000018   0.338099
    23  C   -1.766673  -1.213917   1.571096  -1.907669   0.002593   1.992400
    24  C   -0.137013  -0.042697   0.066926  -0.165661   0.010718  -0.070020
    25  H   -0.002447   0.034812  -0.000120  -0.054984   0.003871   0.003528
    26  H    0.009210   0.004953  -0.006131   0.047154   0.000001  -0.008807
    27  C    0.031476   0.257402  -0.363242   1.024010   0.000335  -0.751034
    28  H   -0.003054  -0.009654   0.001029  -0.017718  -0.000009   0.004302
    29  H    0.000663   0.001854  -0.001961   0.018678   0.000000  -0.008520
    30  C    0.186298  -0.014996   0.026568   0.012518  -0.000317   0.003853
    31  C    0.024756   0.014702  -0.060024   0.008960   0.000314  -0.009189
    32  C   -0.087354  -0.018507   0.064405  -0.007658  -0.000044   0.007490
    33  C    0.025203   0.003545  -0.009501   0.001882   0.000012  -0.000714
    34  H   -0.001662   0.000374  -0.000797   0.000048   0.000000  -0.000043
    35  C   -0.014032  -0.002713   0.011505  -0.000693  -0.000002   0.000681
    36  H   -0.000143   0.000015   0.000204   0.000000   0.000000   0.000015
    37  C    0.000657  -0.000923   0.006573  -0.000120  -0.000002   0.000475
    38  C    0.001553   0.001463  -0.003017   0.000442   0.000006  -0.000243
    39  H    0.000002   0.000000  -0.000002   0.000000   0.000000   0.000000
    40  C    0.002187   0.000160   0.000557   0.000037   0.000000   0.000038
    41  C   -0.001545   0.000022  -0.000320  -0.000013   0.000000  -0.000014
    42  H   -0.000016  -0.000001   0.000000   0.000000   0.000000   0.000000
    43  H    0.000000   0.000000   0.000000   0.000000   0.000000   0.000000
    44  C   -0.000216  -0.000048   0.000025  -0.000006   0.000000   0.000000
    45  H    0.000000   0.000000   0.000000   0.000000   0.000000   0.000000
    46  H    0.000000   0.000000   0.000000   0.000000   0.000000   0.000000
             19         20         21         22         23         24
     1  N    0.000871   0.002183   0.000204  -0.000019   0.000142   0.000037
     2  C    0.045821   0.061708   0.015509  -0.004152   0.039667  -0.001678
     3  C    0.015441   0.016090  -0.009772   0.000071  -0.004445  -0.000498
     4  C   -0.012386   0.012939   0.016564  -0.000256   0.014601   0.006845
     5  C    0.019060   0.158639  -0.151254   0.002970  -0.159498  -0.007991
     6  C   -0.001578  -0.589142  -0.044882  -0.000653   0.057755  -0.042367
     7  C    0.006847  -0.004261   0.038945  -0.000120   0.024433  -0.005913
     8  N   -0.000081   0.009932  -0.022315   0.000091  -0.016711  -0.000454
     9  O   -0.004465  -0.011829  -0.000211   0.000110  -0.001215  -0.000056
[...]
    34  H    0.000000  -0.000011  -0.000001   0.000000   0.000000   0.000000
    35  C    0.000061   0.000319   0.000007   0.000000   0.000022  -0.000001
    36  H    0.000000   0.000001   0.000000   0.000000   0.000000   0.000000
    37  C    0.000006   0.000135   0.000023   0.000000   0.000008   0.000001
    38  C   -0.000001  -0.000121  -0.000004   0.000000  -0.000008   0.000001
    39  H    0.000000   0.000000   0.000000   0.000000   0.000000   0.000000
    40  C    0.000000   0.000003   0.000003   0.000000   0.000000   0.000000
    41  C    0.000000  -0.000006  -0.000003   0.000000   0.000000   0.000000
    42  H    0.000000   0.000000   0.000000   0.000000   0.000000   0.000000
    43  H    0.000000   0.000000   0.000000   0.000000   0.000000   0.000000
    44  C    0.000000   0.000001   0.000000   0.000000   0.000000   0.000000
    45  H    0.000000   0.000000   0.000000   0.000000   0.000000   0.000000
    46  H    0.000000   0.000000   0.000000   0.000000   0.000000   0.000000
             25         26         27         28         29         30
     1  N    0.000000   0.000000   0.000043   0.000000   0.000000  -0.277462
     2  C   -0.000026  -0.000049   0.001242   0.000000   0.000000  -0.259677
     3  C    0.000001   0.000000   0.000217   0.000000   0.000000   0.126760
     4  C    0.000006   0.000008   0.002449   0.000001   0.000000  -0.338519
     5  C   -0.000415  -0.000018   0.010645  -0.000035   0.000001   0.831463
     6  C    0.005281   0.000649  -0.058078   0.000242  -0.000023  -0.323646
     7  C   -0.000109  -0.000004  -0.002638   0.000002   0.000000   0.142568
     8  N   -0.000067  -0.000001   0.000947   0.000000   0.000000  -0.016839
     9  O    0.000000   0.000000  -0.000048   0.000000   0.000000   0.046741
    10  O    0.000000   0.000000   0.000008   0.000000   0.000000   0.027352
    11  H    0.000006   0.000000   0.000197   0.000000   0.000000  -0.003347
    12  H    0.000000   0.000000   0.000000   0.000000   0.000000  -0.158900
    13  C   -0.002447   0.009210   0.031476  -0.003054   0.000663   0.186298
    14  C    0.034812   0.004953   0.257402  -0.009654   0.001854  -0.014996
    15  C   -0.000120  -0.006131  -0.363242   0.001029  -0.001961   0.026568
    16  C   -0.054984   0.047154   1.024010  -0.017718   0.018678   0.012518
    17  H    0.003871   0.000001   0.000335  -0.000009   0.000000  -0.000317
    18  C    0.003528  -0.008807  -0.751034   0.004302  -0.008520   0.003853
    19  H    0.000000  -0.000007  -0.000351   0.000000   0.000000  -0.002600
    20  C    0.043578  -0.014417   0.689387   0.014976   0.013213  -0.002167
    21  C    0.306177  -0.021595  -1.182897   0.036725   0.005613   0.001554
    22  H    0.000001   0.003109  -0.003289   0.000000  -0.000007   0.000002
    23  C   -0.025635   0.291174  -0.697384   0.020129   0.003397   0.000472
    24  C   -0.010473   0.001309   0.723561   0.286095  -0.005661   0.000144
    25  H    0.564948   0.000015   0.003261  -0.004785  -0.000150   0.000000
    26  H    0.000015   0.558144   0.001631  -0.000146  -0.004728   0.000000
    27  C    0.003261   0.001631   6.139366  -0.013615   0.291778  -0.000014
    28  H   -0.004785  -0.000146  -0.013615   0.551817  -0.004466   0.000000
    29  H   -0.000150  -0.004728   0.291778  -0.004466   0.551846   0.000000
    30  C    0.000000   0.000000  -0.000014   0.000000   0.000000   9.723808
    31  C    0.000000   0.000000  -0.000014   0.000000   0.000000   1.190368
    32  C    0.000000   0.000000  -0.000001   0.000000   0.000000  -0.954480
    33  C    0.000000   0.000000  -0.000001   0.000000   0.000000   0.441484
    34  H    0.000000   0.000000   0.000000   0.000000   0.000000  -0.102541
    35  C    0.000000   0.000000   0.000000   0.000000   0.000000  -2.805687
    36  H    0.000000   0.000000   0.000000   0.000000   0.000000  -0.094229
    37  C    0.000000   0.000000   0.000000   0.000000   0.000000   0.796905
    38  C    0.000000   0.000000   0.000000   0.000000   0.000000  -1.311466
    39  H    0.000000   0.000000   0.000000   0.000000   0.000000   0.065149
    40  C    0.000000   0.000000   0.000000   0.000000   0.000000  -1.459228
    41  C    0.000000   0.000000   0.000000   0.000000   0.000000   0.012803
    42  H    0.000000   0.000000   0.000000   0.000000   0.000000  -0.006875
    43  H    0.000000   0.000000   0.000000   0.000000   0.000000   0.008362
    44  C    0.000000   0.000000   0.000000   0.000000   0.000000   0.112850
    45  H    0.000000   0.000000   0.000000   0.000000   0.000000  -0.001711
    46  H    0.000000   0.000000   0.000000   0.000000   0.000000   0.001410
             31         32         33         34         35         36
     1  N   -0.078075   0.208594  -0.096398  -0.000557   0.120957  -0.010144
     2  C   -0.563442   0.390094  -0.194346  -0.004143   0.166758   0.005091
     3  C   -0.561881  -0.543498   0.241568   0.029075  -0.118295   0.061646
     4  C    0.619291  -0.242276  -0.034535   0.067465  -0.116317  -0.001323
     5  C    0.526783  -1.064429   0.408793   0.006802  -0.351263  -0.004212
     6  C    0.147135  -0.042901   0.031846   0.013305  -0.024700   0.001154
     7  C   -0.460917   0.438095  -0.285940  -0.008986   0.155634  -0.002540
     8  N   -0.025780  -0.000320  -0.003059   0.001664  -0.001016  -0.000048
     9  O    0.015133  -0.031997   0.001073   0.000001  -0.004892   0.000314
    10  O   -0.046227  -0.016646  -0.035243  -0.004506   0.002388   0.000014
    11  H    0.002956  -0.000737  -0.000132  -0.000004  -0.000044   0.000000
    12  H   -0.025588   0.123385  -0.013760   0.000000   0.080505   0.005254
    13  C    0.024756  -0.087354   0.025203  -0.001662  -0.014032  -0.000143
    14  C    0.014702  -0.018507   0.003545   0.000374  -0.002713   0.000015
    15  C   -0.060024   0.064405  -0.009501  -0.000797   0.011505   0.000204
    16  C    0.008960  -0.007658   0.001882   0.000048  -0.000693   0.000000
    17  H    0.000314  -0.000044   0.000012   0.000000  -0.000002   0.000000
    18  C   -0.009189   0.007490  -0.000714  -0.000043   0.000681   0.000015
    19  H   -0.000396   0.000917  -0.000058   0.000000   0.000061   0.000000
    20  C   -0.002985   0.002965  -0.000537  -0.000011   0.000319   0.000001
    21  C   -0.000336   0.000056   0.000025  -0.000001   0.000007   0.000000
    22  H    0.000003  -0.000002   0.000000   0.000000   0.000000   0.000000
    23  C   -0.000394   0.000274  -0.000025   0.000000   0.000022   0.000000
    24  C    0.000016  -0.000014   0.000007   0.000000  -0.000001   0.000000
    25  H    0.000000   0.000000   0.000000   0.000000   0.000000   0.000000
    26  H    0.000000   0.000000   0.000000   0.000000   0.000000   0.000000
    27  C   -0.000014  -0.000001  -0.000001   0.000000   0.000000   0.000000
    28  H    0.000000   0.000000   0.000000   0.000000   0.000000   0.000000
    29  H    0.000000   0.000000   0.000000   0.000000   0.000000   0.000000
    30  C    1.190368  -0.954480   0.441484  -0.102541  -2.805687  -0.094229
    31  C    7.341009  -0.956022   1.377009   0.409951  -1.167760   0.001351
    32  C   -0.956022   9.743079  -0.982446  -0.056946   1.623349   0.286613
    33  C    1.377009  -0.982446   9.883212  -0.014708  -1.815033  -0.014685
    34  H    0.409951  -0.056946  -0.014708   0.518519  -0.029195  -0.000130
    35  C   -1.167760   1.623349  -1.815033  -0.029195   9.520064   0.021733
    36  H    0.001351   0.286613  -0.014685  -0.000130   0.021733   0.595708
    37  C    0.815100  -2.523827  -0.972312  -0.046134  -2.515498   0.045452
    38  C   -1.177882   0.646098  -1.842909   0.026065   1.080477  -0.001208
    39  H    0.011254   0.040097   0.033715   0.000015   0.257846  -0.004921
    40  C   -1.166917   0.458098  -0.783346   0.006126   2.992741   0.002809
    41  C   -0.131406   0.033991  -0.241568   0.009235  -0.014658   0.000118
    42  H    0.015988   0.001243  -0.025070   0.003052  -0.000335   0.000000
    43  H    0.004762   0.003370   0.042231   0.000001  -0.027289  -0.000009
    44  C    0.185662  -0.356519   0.770215  -0.002876  -0.778704   0.000701
    45  H   -0.008167   0.000685  -0.015253  -0.000008   0.003092   0.000000
    46  H    0.002589  -0.001609   0.022142   0.000000  -0.007802   0.000000
             37         38         39         40         41         42
     1  N    0.067343  -0.013890   0.000623  -0.008056   0.000978  -0.000001
     2  C    0.113477  -0.054702  -0.000120   0.017302  -0.005004   0.000052
     3  C   -0.970086   0.103651  -0.007634   0.755646  -0.126449   0.001026
     4  C    0.124602  -0.150025   0.000418  -0.298796   0.068198   0.001752
     5  C   -0.215064   0.112806   0.000863   0.048892  -0.006415  -0.000471
     6  C   -0.020678   0.011890   0.000003  -0.012615   0.007949   0.000216
     7  C    0.123949  -0.130254  -0.000209   0.004616  -0.010419   0.000776
     8  N    0.002273  -0.007344   0.000000  -0.000660  -0.001341   0.000001
     9  O   -0.001420   0.000349   0.000000  -0.000243   0.000027   0.000000
    10  O   -0.027525   0.039727  -0.000001  -0.000568   0.012596  -0.000442
    11  H   -0.000041   0.000094   0.000000   0.000000   0.000005   0.000000
    12  H    0.018255  -0.000750  -0.000001   0.000727   0.000018   0.000000
    13  C    0.000657   0.001553   0.000002   0.002187  -0.001545  -0.000016
    14  C   -0.000923   0.001463   0.000000   0.000160   0.000022  -0.000001
    15  C    0.006573  -0.003017  -0.000002   0.000557  -0.000320   0.000000
    16  C   -0.000120   0.000442   0.000000   0.000037  -0.000013   0.000000
    17  H   -0.000002   0.000006   0.000000   0.000000   0.000000   0.000000
    18  C    0.000475  -0.000243   0.000000   0.000038  -0.000014   0.000000
    19  H    0.000006  -0.000001   0.000000   0.000000   0.000000   0.000000
    20  C    0.000135  -0.000121   0.000000   0.000003  -0.000006   0.000000
    21  C    0.000023  -0.000004   0.000000   0.000003  -0.000003   0.000000
    22  H    0.000000   0.000000   0.000000   0.000000   0.000000   0.000000
    23  C    0.000008  -0.000008   0.000000   0.000000   0.000000   0.000000
    24  C    0.000001   0.000001   0.000000   0.000000   0.000000   0.000000
    25  H    0.000000   0.000000   0.000000   0.000000   0.000000   0.000000
    26  H    0.000000   0.000000   0.000000   0.000000   0.000000   0.000000
    27  C    0.000000   0.000000   0.000000   0.000000   0.000000   0.000000
    28  H    0.000000   0.000000   0.000000   0.000000   0.000000   0.000000
    29  H    0.000000   0.000000   0.000000   0.000000   0.000000   0.000000
    30  C    0.796905  -1.311466   0.065149  -1.459228   0.012803  -0.006875
    31  C    0.815100  -1.177882   0.011254  -1.166917  -0.131406   0.015988
    32  C   -2.523827   0.646098   0.040097   0.458098   0.033991   0.001243
    33  C   -0.972312  -1.842909   0.033715  -0.783346  -0.241568  -0.025070
    34  H   -0.046134   0.026065   0.000015   0.006126   0.009235   0.003052
    35  C   -2.515498   1.080477   0.257846   2.992741  -0.014658  -0.000335
    36  H    0.045452  -0.001208  -0.004921   0.002809   0.000118   0.000000
    37  C   24.640848  -3.349746  -0.027735 -12.782751   0.112062   0.042438
    38  C   -3.349746  10.416021   0.005729   3.360793  -0.052708   0.343385
    39  H   -0.027735   0.005729   0.555515  -0.074268   0.002173   0.000001
    40  C  -12.782751   3.360793  -0.074268  17.187962  -0.522526  -0.025954
    41  C    0.112062  -0.052708   0.002173  -0.522526   6.017420  -0.046654
    42  H    0.042438   0.343385   0.000001  -0.025954  -0.046654   0.541068
    43  H   -0.009290  -0.021049   0.003235   0.269501   0.005402   0.000014
    44  C    2.012563  -1.612668   0.000231  -1.645726   0.773162   0.005995
    45  H    0.017208   0.016399   0.000000   0.015400   0.292238  -0.004457
    46  H   -0.002035   0.007146  -0.000007  -0.000195   0.008078  -0.000143
             43         44         45         46
     1  N   -0.000002   0.001841   0.000000   0.000000
     2  C   -0.000001   0.001266   0.000001   0.000000
     3  C    0.000435  -0.117632   0.000105   0.000050
     4  C    0.000099   0.028625  -0.000112   0.000013
     5  C    0.000005  -0.007967   0.000000   0.000000
     6  C    0.000000   0.000787   0.000000   0.000000
     7  C   -0.000008   0.006133   0.000033  -0.000002
     8  N    0.000000   0.000103   0.000000   0.000000
     9  O    0.000000   0.000006   0.000000   0.000000
    10  O    0.000000  -0.000351   0.000002   0.000000
    11  H    0.000000   0.000000   0.000000   0.000000
    12  H    0.000000   0.000048   0.000000   0.000000
    13  C    0.000000  -0.000216   0.000000   0.000000
    14  C    0.000000  -0.000048   0.000000   0.000000
    15  C    0.000000   0.000025   0.000000   0.000000
    16  C    0.000000  -0.000006   0.000000   0.000000
    17  H    0.000000   0.000000   0.000000   0.000000
    18  C    0.000000   0.000000   0.000000   0.000000
    19  H    0.000000   0.000000   0.000000   0.000000
    20  C    0.000000   0.000001   0.000000   0.000000
    21  C    0.000000   0.000000   0.000000   0.000000
    22  H    0.000000   0.000000   0.000000   0.000000
    23  C    0.000000   0.000000   0.000000   0.000000
    24  C    0.000000   0.000000   0.000000   0.000000
    25  H    0.000000   0.000000   0.000000   0.000000
    26  H    0.000000   0.000000   0.000000   0.000000
    27  C    0.000000   0.000000   0.000000   0.000000
    28  H    0.000000   0.000000   0.000000   0.000000
    29  H    0.000000   0.000000   0.000000   0.000000
    30  C    0.008362   0.112850  -0.001711   0.001410
    31  C    0.004762   0.185662  -0.008167   0.002589
    32  C    0.003370  -0.356519   0.000685  -0.001609
    33  C    0.042231   0.770215  -0.015253   0.022142
    34  H    0.000001  -0.002876  -0.000008   0.000000
    35  C   -0.027289  -0.778704   0.003092  -0.007802
    36  H   -0.000009   0.000701   0.000000   0.000000
    37  C   -0.009290   2.012563   0.017208  -0.002035
    38  C   -0.021049  -1.612668   0.016399   0.007146
    39  H    0.003235   0.000231   0.000000  -0.000007
    40  C    0.269501  -1.645726   0.015400  -0.000195
    41  C    0.005402   0.773162   0.292238   0.008078
    42  H    0.000014   0.005995  -0.004457  -0.000143
    43  H    0.561237   0.026947  -0.000145  -0.004779
    44  C    0.026947   6.536664  -0.000191   0.289161
    45  H   -0.000145  -0.000191   0.550279  -0.004505
    46  H   -0.004779   0.289161  -0.004505   0.552621
 Mulliken atomic charges:
              1
     1  N   -0.421228
     2  C    0.454944
     3  C    0.524595
     4  C   -0.253291
     5  C   -0.529861
     6  C    0.799865
     7  C    0.505992
     8  N   -0.417802
     9  O   -0.531456
    10  O   -0.548423
    11  H    0.298801
    12  H    0.299437
    13  C    0.435290
    14  C   -0.150515
    15  C   -0.573330
    16  C   -0.078460
    17  H    0.101207
    18  C   -0.098630
    19  H    0.180398
    20  C    0.158484
    21  C   -0.397281
    22  H    0.142601
    23  C   -0.247703
    24  C   -0.177322
    25  H    0.133724
    26  H    0.138545
    27  C   -0.105350
    28  H    0.138163
    29  H    0.138473
    30  C    0.375269
    31  C   -0.271694
    32  C   -0.184664
    33  C    0.097618
    34  H    0.181550
    35  C   -0.242211
    36  H    0.105398
    37  C    0.524835
    38  C   -0.444099
    39  H    0.138028
    40  C   -0.341747
    41  C   -0.195425
    42  H    0.153410
    43  H    0.136969
    44  C   -0.230081
    45  H    0.139109
    46  H    0.137868
 Sum of Mulliken atomic charges =   0.00000
 Mulliken charges with hydrogens summed into heavy atoms:
              1
     1  N   -0.121790
     2  C    0.454944
     3  C    0.524595
     4  C   -0.253291
     5  C   -0.529861
     6  C    0.799865
     7  C    0.505992
     8  N   -0.119000
     9  O   -0.531456
    10  O   -0.548423
    13  C    0.435290
    14  C   -0.049307
    15  C   -0.392932
    16  C   -0.078460
    18  C    0.043971
    20  C    0.158484
    21  C   -0.263558
    23  C   -0.109158
    24  C   -0.039159
    27  C    0.033123
    30  C    0.375269
    31  C   -0.090144
    32  C   -0.079267
    33  C    0.097618
    35  C   -0.104183
    37  C    0.524835
    38  C   -0.290689
    40  C   -0.204777
    41  C   -0.056315
    44  C   -0.092213
 Sum of Mulliken charges with hydrogens summed into heavy atoms =   0.00000
 Electronic spatial extent (au):  <R**2>=          18866.0030
 Charge=              0.0000 electrons
 Dipole moment (field-independent basis, Debye):
    X=              0.3032    Y=             -0.5280    Z=              0.0001  Tot=              0.6089
 Quadrupole moment (field-independent basis, Debye-Ang):
   XX=           -123.7831   YY=           -168.8493   ZZ=           -182.6382
   XY=             14.8009   XZ=              0.0001   YZ=             -0.0024
 Traceless Quadrupole moment (field-independent basis, Debye-Ang):
   XX=             34.6405   YY=            -10.4258   ZZ=            -24.2147
   XY=             14.8009   XZ=              0.0001   YZ=             -0.0024
 Octapole moment (field-independent basis, Debye-Ang**2):
  XXX=              4.2353  YYY=            -22.5423  ZZZ=             -0.0004  XYY=             16.3388
  XXY=            -13.4586  XXZ=             -0.0005  XZZ=              0.9638  YZZ=              3.5207
  YYZ=             -0.0007  XYZ=             -0.0063
 Hexadecapole moment (field-independent basis, Debye-Ang**3):
 XXXX=         -20120.1250 YYYY=          -2626.5358 ZZZZ=           -215.0120 XXXY=            -53.1099
 XXXZ=              0.0349 YYYX=            153.3566 YYYZ=             -0.0486 ZZZX=              0.1498
 ZZZY=             -0.0240 XXYY=          -3894.8045 XXZZ=          -4487.9516 YYZZ=           -504.8739
 XXYZ=             -0.0220 YYXZ=              0.0551 ZZXY=             -7.5551
 N-N= 2.466614567397D+03 E-N=-7.856774046249D+03  KE= 1.248071185600D+03
 1|1|UNPC-DESKTOP-1G0HI64|SP|RCAM-B3LYP TD-FC|6-31+G(d,p)|C26H16N2O2|US
 ER|17-Jul-2023|0||# td=(nstates=10) cam-b3lyp/6-31+g(d,p) geom=connect
 ivity||Energy:||0,1|N,0,1.129745,2.228916,0.000105|C,0,-0.28729,2.1858
 55,0.000106|C,0,1.72323,0.971151,-0.000006|C,0,0.681815,0.052851,-0.00
 005|C,0,-0.57066,0.753481,0.000026|C,0,-1.608894,-0.168609,-0.000013|C
 ,0,0.404941,-1.376508,-0.000144|N,0,-1.01011,-1.424962,-0.000132|O,0,-
 0.990571,3.19182,0.000212|O,0,1.117529,-2.378378,-0.00025|H,0,-1.49268
 1,-2.310341,-0.000117|H,0,1.614188,3.113349,0.000109|C,0,-3.052873,0.0
 1132,0.000021|C,0,-3.925356,-1.073112,0.000005|C,0,-3.596243,1.335614,
 0.000062|C,0,-5.330437,-0.89673,0.000042|H,0,-3.553543,-2.094005,-0.00
 0049|C,0,-4.955357,1.529487,0.000101|H,0,-2.921976,2.186476,0.00005|C,
 0,-5.864301,0.434052,0.000095|C,0,-6.22995,-2.000471,0.000028|H,0,-5.3
 53749,2.540622,0.000132|C,0,-7.273187,0.608794,0.000134|C,0,-7.592644,
 -1.797476,0.000066|H,0,-5.824448,-3.009116,-0.000014|H,0,-7.675701,1.6
 18289,0.000174|C,0,-8.119392,-0.480696,0.000121|H,0,-8.269464,-2.64670
 8,0.000055|H,0,-9.195383,-0.333531,0.000151|C,0,3.165939,0.785458,-0.0
 00037|C,0,3.697789,-0.502242,0.000025|C,0,4.061208,1.901211,-0.000123|
 C,0,5.097093,-0.717691,-0.000007|H,0,3.032627,-1.362105,0.000115|C,0,5
 .421585,1.714673,-0.000156|H,0,3.677903,2.916653,-0.000153|C,0,5.98546
 8,0.407846,-0.000102|C,0,5.64756,-2.031229,0.000055|H,0,6.086838,2.573
 967,-0.000219|C,0,7.386422,0.179814,-0.000135|C,0,7.012354,-2.21994,0.
 000021|H,0,4.969881,-2.880345,0.000131|H,0,8.05905,1.033649,-0.000206|
 C,0,7.889098,-1.105114,-0.000075|H,0,7.422834,-3.22528,0.000069|H,0,8.
 96299,-1.267513,-0.000101||Version=IA32W-G09RevB.01|State=1-A|HF=-1259
 .8051737|RMSD=8.218e-009|PG=C01 [X(C26H16N2O2)]||@


 This summer one third of the nation will be ill-housed
 ill-nourished and ill-clad. Only they call it a vacation.
 -- Jonas Salk
 Job cpu time:  0 days  6 hours 30 minutes 49.0 seconds.
 File lengths (MBytes):  RWF=    923 Int=      0 D2E=      0 Chk=    147 Scr=      1
 Normal termination of Gaussian 09 at Mon Jul 17 15:36:22 2023.
