 Entering Link 1 = C:\G09W\l1.exe PID=      2572.
  
 Copyright (c) 1988,1990,1992,1993,1995,1998,2003,2009,2010,
            Gaussian, Inc.  All Rights Reserved.
  
 This is part of the Gaussian(R) 09 program.  It is based on
 the Gaussian(R) 03 system (copyright 2003, Gaussian, Inc.),
 the Gaussian(R) 98 system (copyright 1998, Gaussian, Inc.),
 the Gaussian(R) 94 system (copyright 1995, Gaussian, Inc.),
 the Gaussian 92(TM) system (copyright 1992, Gaussian, Inc.),
 the Gaussian 90(TM) system (copyright 1990, Gaussian, Inc.),
 the Gaussian 88(TM) system (copyright 1988, Gaussian, Inc.),
 the Gaussian 86(TM) system (copyright 1986, Carnegie Mellon
 University), and the Gaussian 82(TM) system (copyright 1983,
 Carnegie Mellon University). Gaussian is a federally registered
 trademark of Gaussian, Inc.
  
 This software contains proprietary and confidential information,
 including trade secrets, belonging to Gaussian, Inc.
  
 This software is provided under written license and may be
 used, copied, transmitted, or stored only in accord with that
 written license.
  
 The following legend is applicable only to US Government
 contracts under FAR:
  
                    RESTRICTED RIGHTS LEGEND
  
 Use, reproduction and disclosure by the US Government is
 subject to restrictions as set forth in subparagraphs (a)
 and (c) of the Commercial Computer Software - Restricted
 Rights clause in FAR 52.227-19.
  
 Gaussian, Inc.
 340 Quinnipiac St., Bldg. 40, Wallingford CT 06492
  
  
 ---------------------------------------------------------------
 Warning -- This program may not be used in any manner that
 competes with the business of Gaussian, Inc. or will provide
 assistance to any competitor of Gaussian, Inc.  The licensee
 of this program is prohibited from giving any competitor of
 Gaussian, Inc. access to this program.  By using this program,
 the user acknowledges that Gaussian, Inc. is engaged in the
 business of creating and licensing software in the field of
 computational chemistry and represents and warrants to the
 licensee that it is not a competitor of Gaussian, Inc. and that
 it will not use this program in any manner prohibited above.
 ---------------------------------------------------------------
  

 Cite this work as:
 Gaussian 09, Revision B.01,
 M. J. Frisch, G. W. Trucks, H. B. Schlegel, G. E. Scuseria, 
 M. A. Robb, J. R. Cheeseman, G. Scalmani, V. Barone, B. Mennucci, 
 G. A. Petersson, H. Nakatsuji, M. Caricato, X. Li, H. P. Hratchian, 
 A. F. Izmaylov, J. Bloino, G. Zheng, J. L. Sonnenberg, M. Hada, 
 M. Ehara, K. Toyota, R. Fukuda, J. Hasegawa, M. Ishida, T. Nakajima, 
 Y. Honda, O. Kitao, H. Nakai, T. Vreven, J. A. Montgomery, Jr., 
 J. E. Peralta, F. Ogliaro, M. Bearpark, J. J. Heyd, E. Brothers, 
 K. N. Kudin, V. N. Staroverov, T. Keith, R. Kobayashi, J. Normand, 
 K. Raghavachari, A. Rendell, J. C. Burant, S. S. Iyengar, J. Tomasi, 
 M. Cossi, N. Rega, J. M. Millam, M. Klene, J. E. Knox, J. B. Cross, 
 V. Bakken, C. Adamo, J. Jaramillo, R. Gomperts, R. E. Stratmann, 
 O. Yazyev, A. J. Austin, R. Cammi, C. Pomelli, J. W. Ochterski, 
 R. L. Martin, K. Morokuma, V. G. Zakrzewski, G. A. Voth, 
 P. Salvador, J. J. Dannenberg, S. Dapprich, A. D. Daniels, 
 O. Farkas, J. B. Foresman, J. V. Ortiz, J. Cioslowski, 
 and D. J. Fox, Gaussian, Inc., Wallingford CT, 2010.
 
 ******************************************
 Gaussian 09:  IA32W-G09RevB.01 12-Aug-2010
                30-Oct-2023 
 ******************************************
 %chk=G:\Meu Drive\POS-DOC-IME\SUBSTITUINTES-DOADORES\DPP-substituido\DPP-SUB-10\
 DPP-SUB-10-ANION.chk
 -----------------------------------------------------------
 # opt=tight freq b3lyp/6-31+g(d,p) nosymm geom=connectivity
 -----------------------------------------------------------
 1/7=10,14=-1,18=20,19=15,26=3,38=1,57=2/1,3;
 2/9=110,12=2,15=1,17=6,18=5,40=1/2;
 3/5=1,6=6,7=111,11=2,16=1,25=1,30=1,71=1,74=-5/1,2,3;
 4//1;
 5/5=2,38=5/2;
 6/7=2,8=2,9=2,10=2,28=1/1;
 7/30=1/1,2,3,16;
 1/7=10,14=-1,18=20,19=15/3(2);
 2/9=110,15=1/2;
 99//99;
 2/9=110,15=1/2;
 3/5=1,6=6,7=111,11=2,16=1,25=1,30=1,71=1,74=-5/1,2,3;
 4/5=5,16=3/1;
 5/5=2,38=5/2;
 7/30=1/1,2,3,16;
 1/7=10,14=-1,18=20,19=15/3(-5);
 2/9=110,15=1/2;
 6/7=2,8=2,9=2,10=2,19=2,28=1/1;
 99/9=1/99;
 -------
 Energy:
 -------
 Symbolic Z-matrix:
 Charge = -1 Multiplicity = 2
 N                     0.61822  -1.41878   2.36773 
 C                     1.07122  -0.07699   2.40408 
 C                     0.04274  -1.75661   1.14727 
 C                     0.10609  -0.62392   0.34188 
 C                     0.72787   0.42066   1.07724 
 C                     0.79121   1.55335   0.27186 
 C                    -0.23727  -0.12627  -0.98495 
 N                     0.21574   1.21552  -0.94861 
 O                     1.61314   0.45348   3.36891 
 O                    -0.7792   -0.65674  -1.94978 
 H                     0.1362    1.87105  -1.71872 
 H                     0.69773  -2.0743    3.13785 
 C                     1.32892   3.95588  -0.37222 
 C                     1.93117   5.13539   0.20184 
 C                     1.56456   6.26146  -1.72465 
 H                     1.63336   7.16949  -2.3203 
 C                     0.96498   5.09047  -2.29888 
 H                     0.58817   5.12505  -3.31871 
 C                     1.31043   2.86131   0.51441 
 C                     2.35968   4.92537   1.50679 
 H                     2.84103   5.63796   2.16191 
 S                     2.03916   3.32741   2.0297 
 N                     0.84292   3.95371  -1.647 
 N                     2.04274   6.3021   -0.50268 
 C                    -1.09726  -5.33864   1.2173 
 C                    -0.495    -4.15913   1.79136 
 C                    -0.1311   -5.29371   3.71803 
 H                     0.24569  -5.32829   4.73787 
 C                    -0.73069  -6.46469   3.1438 
 H                    -0.79951  -7.37272   3.73946 
 C                    -1.52575  -5.12862  -0.08766 
 H                    -2.00709  -5.84121  -0.74278 
 C                    -0.47649  -3.06457   0.90472 
 S                    -1.2052   -3.53067  -0.61057 
 N                    -1.20885  -6.50534   1.92182 
 N                    -0.00902  -4.15695   3.06615 
 

 GradGradGradGradGradGradGradGradGradGradGradGradGradGradGradGradGradGrad
 Berny optimization.
 Initialization pass.
                           ----------------------------
                           !    Initial Parameters    !
                           ! (Angstroms and Degrees)  !
 --------------------------                            --------------------------
 ! Name  Definition              Value          Derivative Info.                !
 --------------------------------------------------------------------------------
 ! R1    R(1,2)                  1.4167         estimate D2E/DX2                !
 ! R2    R(1,3)                  1.391          estimate D2E/DX2                !
 ! R3    R(1,12)                 1.0145         estimate D2E/DX2                !
 ! R4    R(2,5)                  1.4581         estimate D2E/DX2                !
 ! R5    R(2,9)                  1.2272         estimate D2E/DX2                !
 ! R6    R(3,4)                  1.3913         estimate D2E/DX2                !
 ! R7    R(3,33)                 1.428          estimate D2E/DX2                !
 ! R8    R(4,5)                  1.4207         estimate D2E/DX2                !
 ! R9    R(4,7)                  1.4581         estimate D2E/DX2                !
 ! R10   R(5,6)                  1.3913         estimate D2E/DX2                !
 ! R11   R(6,8)                  1.391          estimate D2E/DX2                !
 ! R12   R(6,19)                 1.428          estimate D2E/DX2                !
 ! R13   R(7,8)                  1.4167         estimate D2E/DX2                !
 ! R14   R(7,10)                 1.2272         estimate D2E/DX2                !
 ! R15   R(8,11)                 1.0145         estimate D2E/DX2                !
 ! R16   R(13,14)                1.4434         estimate D2E/DX2                !
 ! R17   R(13,19)                1.4087         estimate D2E/DX2                !
 ! R18   R(13,23)                1.3643         estimate D2E/DX2                !
 ! R19   R(14,20)                1.3895         estimate D2E/DX2                !
 ! R20   R(14,24)                1.3675         estimate D2E/DX2                !
 ! R21   R(15,16)                1.0881         estimate D2E/DX2                !
 ! R22   R(15,17)                1.4354         estimate D2E/DX2                !
 ! R23   R(15,24)                1.3128         estimate D2E/DX2                !
 ! R24   R(17,18)                1.0878         estimate D2E/DX2                !
 ! R25   R(17,23)                1.3161         estimate D2E/DX2                !
 ! R26   R(19,22)                1.7448         estimate D2E/DX2                !
 ! R27   R(20,21)                1.081          estimate D2E/DX2                !
 ! R28   R(20,22)                1.7116         estimate D2E/DX2                !
 ! R29   R(25,26)                1.4434         estimate D2E/DX2                !
 ! R30   R(25,31)                1.3895         estimate D2E/DX2                !
 ! R31   R(25,35)                1.3675         estimate D2E/DX2                !
 ! R32   R(26,33)                1.4087         estimate D2E/DX2                !
 ! R33   R(26,36)                1.3643         estimate D2E/DX2                !
 ! R34   R(27,28)                1.0878         estimate D2E/DX2                !
 ! R35   R(27,29)                1.4354         estimate D2E/DX2                !
 ! R36   R(27,36)                1.3161         estimate D2E/DX2                !
 ! R37   R(29,30)                1.0881         estimate D2E/DX2                !
 ! R38   R(29,35)                1.3128         estimate D2E/DX2                !
 ! R39   R(31,32)                1.081          estimate D2E/DX2                !
 ! R40   R(31,34)                1.7116         estimate D2E/DX2                !
 ! R41   R(33,34)                1.7448         estimate D2E/DX2                !
 ! A1    A(2,1,3)              112.6338         estimate D2E/DX2                !
 ! A2    A(2,1,12)             124.5756         estimate D2E/DX2                !
 ! A3    A(3,1,12)             122.7906         estimate D2E/DX2                !
 ! A4    A(1,2,5)              102.9804         estimate D2E/DX2                !
 ! A5    A(1,2,9)              124.8061         estimate D2E/DX2                !
 ! A6    A(5,2,9)              132.2135         estimate D2E/DX2                !
 ! A7    A(1,3,4)              106.9387         estimate D2E/DX2                !
 ! A8    A(1,3,33)             121.461          estimate D2E/DX2                !
 ! A9    A(4,3,33)             131.6003         estimate D2E/DX2                !
 ! A10   A(3,4,5)              108.5954         estimate D2E/DX2                !
 ! A11   A(3,4,7)              142.5529         estimate D2E/DX2                !
 ! A12   A(5,4,7)              108.8516         estimate D2E/DX2                !
 ! A13   A(2,5,4)              108.8516         estimate D2E/DX2                !
 ! A14   A(2,5,6)              142.553          estimate D2E/DX2                !
 ! A15   A(4,5,6)              108.5954         estimate D2E/DX2                !
 ! A16   A(5,6,8)              106.9388         estimate D2E/DX2                !
 ! A17   A(5,6,19)             131.6002         estimate D2E/DX2                !
 ! A18   A(8,6,19)             121.461          estimate D2E/DX2                !
 ! A19   A(4,7,8)              102.9804         estimate D2E/DX2                !
 ! A20   A(4,7,10)             132.2135         estimate D2E/DX2                !
 ! A21   A(8,7,10)             124.8061         estimate D2E/DX2                !
 ! A22   A(6,8,7)              112.6338         estimate D2E/DX2                !
 ! A23   A(6,8,11)             122.7906         estimate D2E/DX2                !
 ! A24   A(7,8,11)             124.5756         estimate D2E/DX2                !
 ! A25   A(14,13,19)           112.9601         estimate D2E/DX2                !
 ! A26   A(14,13,23)           121.4363         estimate D2E/DX2                !
 ! A27   A(19,13,23)           125.6036         estimate D2E/DX2                !
 ! A28   A(13,14,20)           112.2514         estimate D2E/DX2                !
 ! A29   A(13,14,24)           121.7578         estimate D2E/DX2                !
 ! A30   A(20,14,24)           125.9908         estimate D2E/DX2                !
 ! A31   A(16,15,17)           119.2204         estimate D2E/DX2                !
 ! A32   A(16,15,24)           117.4297         estimate D2E/DX2                !
 ! A33   A(17,15,24)           123.3499         estimate D2E/DX2                !
 ! A34   A(15,17,18)           119.5919         estimate D2E/DX2                !
 ! A35   A(15,17,23)           123.0397         estimate D2E/DX2                !
 ! A36   A(18,17,23)           117.3684         estimate D2E/DX2                !
 ! A37   A(6,19,13)            127.5564         estimate D2E/DX2                !
 ! A38   A(6,19,22)            122.9595         estimate D2E/DX2                !
 ! A39   A(13,19,22)           109.4841         estimate D2E/DX2                !
 ! A40   A(14,20,21)           127.3603         estimate D2E/DX2                !
 ! A41   A(14,20,22)           111.7331         estimate D2E/DX2                !
 ! A42   A(21,20,22)           120.9067         estimate D2E/DX2                !
 ! A43   A(19,22,20)            93.5713         estimate D2E/DX2                !
 ! A44   A(13,23,17)           115.3662         estimate D2E/DX2                !
 ! A45   A(14,24,15)           115.0501         estimate D2E/DX2                !
 ! A46   A(26,25,31)           112.2515         estimate D2E/DX2                !
 ! A47   A(26,25,35)           121.7578         estimate D2E/DX2                !
 ! A48   A(31,25,35)           125.9908         estimate D2E/DX2                !
 ! A49   A(25,26,33)           112.96           estimate D2E/DX2                !
 ! A50   A(25,26,36)           121.4363         estimate D2E/DX2                !
 ! A51   A(33,26,36)           125.6037         estimate D2E/DX2                !
 ! A52   A(28,27,29)           119.592          estimate D2E/DX2                !
 ! A53   A(28,27,36)           117.3684         estimate D2E/DX2                !
 ! A54   A(29,27,36)           123.0396         estimate D2E/DX2                !
 ! A55   A(27,29,30)           119.2205         estimate D2E/DX2                !
 ! A56   A(27,29,35)           123.3499         estimate D2E/DX2                !
 ! A57   A(30,29,35)           117.4296         estimate D2E/DX2                !
 ! A58   A(25,31,32)           127.3602         estimate D2E/DX2                !
 ! A59   A(25,31,34)           111.733          estimate D2E/DX2                !
 ! A60   A(32,31,34)           120.9068         estimate D2E/DX2                !
 ! A61   A(3,33,26)            127.5564         estimate D2E/DX2                !
 ! A62   A(3,33,34)            122.9594         estimate D2E/DX2                !
 ! A63   A(26,33,34)           109.4841         estimate D2E/DX2                !
 ! A64   A(31,34,33)            93.5713         estimate D2E/DX2                !
 ! A65   A(25,35,29)           115.0502         estimate D2E/DX2                !
 ! A66   A(26,36,27)           115.3662         estimate D2E/DX2                !
 ! D1    D(3,1,2,5)              0.0293         estimate D2E/DX2                !
 ! D2    D(3,1,2,9)           -179.9607         estimate D2E/DX2                !
 ! D3    D(12,1,2,5)           179.9856         estimate D2E/DX2                !
 ! D4    D(12,1,2,9)            -0.0044         estimate D2E/DX2                !
 ! D5    D(2,1,3,4)             -0.023          estimate D2E/DX2                !
 ! D6    D(2,1,3,33)           179.9473         estimate D2E/DX2                !
 ! D7    D(12,1,3,4)          -179.9802         estimate D2E/DX2                !
 ! D8    D(12,1,3,33)           -0.0099         estimate D2E/DX2                !
 ! D9    D(1,2,5,4)             -0.0246         estimate D2E/DX2                !
 ! D10   D(1,2,5,6)            179.9943         estimate D2E/DX2                !
 ! D11   D(9,2,5,4)            179.9643         estimate D2E/DX2                !
 ! D12   D(9,2,5,6)             -0.0168         estimate D2E/DX2                !
 ! D13   D(1,3,4,5)              0.0058         estimate D2E/DX2                !
 ! D14   D(1,3,4,7)           -179.9749         estimate D2E/DX2                !
 ! D15   D(33,3,4,5)          -179.9602         estimate D2E/DX2                !
 ! D16   D(33,3,4,7)             0.0591         estimate D2E/DX2                !
 ! D17   D(1,3,33,26)           -0.0292         estimate D2E/DX2                !
 ! D18   D(1,3,33,34)         -179.9652         estimate D2E/DX2                !
 ! D19   D(4,3,33,26)          179.9328         estimate D2E/DX2                !
 ! D20   D(4,3,33,34)           -0.0032         estimate D2E/DX2                !
 ! D21   D(3,4,5,2)              0.0123         estimate D2E/DX2                !
 ! D22   D(3,4,5,6)           -179.9998         estimate D2E/DX2                !
 ! D23   D(7,4,5,2)            179.9999         estimate D2E/DX2                !
 ! D24   D(7,4,5,6)             -0.0122         estimate D2E/DX2                !
 ! D25   D(3,4,7,8)           -179.9945         estimate D2E/DX2                !
 ! D26   D(3,4,7,10)             0.0167         estimate D2E/DX2                !
 ! D27   D(5,4,7,8)              0.0248         estimate D2E/DX2                !
 ! D28   D(5,4,7,10)          -179.964          estimate D2E/DX2                !
 ! D29   D(2,5,6,8)            179.9749         estimate D2E/DX2                !
 ! D30   D(2,5,6,19)            -0.0591         estimate D2E/DX2                !
 ! D31   D(4,5,6,8)             -0.0062         estimate D2E/DX2                !
 ! D32   D(4,5,6,19)           179.9598         estimate D2E/DX2                !
 ! D33   D(5,6,8,7)              0.0235         estimate D2E/DX2                !
 ! D34   D(5,6,8,11)           179.9785         estimate D2E/DX2                !
 ! D35   D(19,6,8,7)          -179.9467         estimate D2E/DX2                !
 ! D36   D(19,6,8,11)            0.0083         estimate D2E/DX2                !
 ! D37   D(5,6,19,13)         -179.9317         estimate D2E/DX2                !
 ! D38   D(5,6,19,22)            0.0042         estimate D2E/DX2                !
 ! D39   D(8,6,19,13)            0.0302         estimate D2E/DX2                !
 ! D40   D(8,6,19,22)          179.966          estimate D2E/DX2                !
 ! D41   D(4,7,8,6)             -0.0298         estimate D2E/DX2                !
 ! D42   D(4,7,8,11)          -179.9839         estimate D2E/DX2                !
 ! D43   D(10,7,8,6)           179.9601         estimate D2E/DX2                !
 ! D44   D(10,7,8,11)            0.006          estimate D2E/DX2                !
 ! D45   D(19,13,14,20)          0.0001         estimate D2E/DX2                !
 ! D46   D(19,13,14,24)        179.9881         estimate D2E/DX2                !
 ! D47   D(23,13,14,20)       -179.9979         estimate D2E/DX2                !
 ! D48   D(23,13,14,24)         -0.0099         estimate D2E/DX2                !
 ! D49   D(14,13,19,6)         179.9366         estimate D2E/DX2                !
 ! D50   D(14,13,19,22)         -0.0063         estimate D2E/DX2                !
 ! D51   D(23,13,19,6)          -0.0655         estimate D2E/DX2                !
 ! D52   D(23,13,19,22)        179.9916         estimate D2E/DX2                !
 ! D53   D(14,13,23,17)          0.018          estimate D2E/DX2                !
 ! D54   D(19,13,23,17)       -179.9797         estimate D2E/DX2                !
 ! D55   D(13,14,20,21)        179.9929         estimate D2E/DX2                !
 ! D56   D(13,14,20,22)          0.0064         estimate D2E/DX2                !
 ! D57   D(24,14,20,21)          0.0055         estimate D2E/DX2                !
 ! D58   D(24,14,20,22)       -179.981          estimate D2E/DX2                !
 ! D59   D(13,14,24,15)         -0.0012         estimate D2E/DX2                !
 ! D60   D(20,14,24,15)        179.9851         estimate D2E/DX2                !
 ! D61   D(16,15,17,18)          0.0026         estimate D2E/DX2                !
 ! D62   D(16,15,17,23)       -179.9897         estimate D2E/DX2                !
 ! D63   D(24,15,17,18)        179.9984         estimate D2E/DX2                !
 ! D64   D(24,15,17,23)          0.006          estimate D2E/DX2                !
 ! D65   D(16,15,24,14)        179.999          estimate D2E/DX2                !
 ! D66   D(17,15,24,14)          0.0032         estimate D2E/DX2                !
 ! D67   D(15,17,23,13)         -0.0163         estimate D2E/DX2                !
 ! D68   D(18,17,23,13)        179.9912         estimate D2E/DX2                !
 ! D69   D(6,19,22,20)        -179.9376         estimate D2E/DX2                !
 ! D70   D(13,19,22,20)          0.0085         estimate D2E/DX2                !
 ! D71   D(14,20,22,19)         -0.0086         estimate D2E/DX2                !
 ! D72   D(21,20,22,19)       -179.9961         estimate D2E/DX2                !
 ! D73   D(31,25,26,33)         -0.0002         estimate D2E/DX2                !
 ! D74   D(31,25,26,36)        179.9975         estimate D2E/DX2                !
 ! D75   D(35,25,26,33)       -179.988          estimate D2E/DX2                !
 ! D76   D(35,25,26,36)          0.0096         estimate D2E/DX2                !
 ! D77   D(26,25,31,32)       -179.993          estimate D2E/DX2                !
 ! D78   D(26,25,31,34)         -0.0062         estimate D2E/DX2                !
 ! D79   D(35,25,31,32)         -0.0058         estimate D2E/DX2                !
 ! D80   D(35,25,31,34)        179.9809         estimate D2E/DX2                !
 ! D81   D(26,25,35,29)          0.0012         estimate D2E/DX2                !
 ! D82   D(31,25,35,29)       -179.9848         estimate D2E/DX2                !
 ! D83   D(25,26,33,3)        -179.9367         estimate D2E/DX2                !
 ! D84   D(25,26,33,34)          0.0063         estimate D2E/DX2                !
 ! D85   D(36,26,33,3)           0.0657         estimate D2E/DX2                !
 ! D86   D(36,26,33,34)       -179.9912         estimate D2E/DX2                !
 ! D87   D(25,26,36,27)         -0.0178         estimate D2E/DX2                !
 ! D88   D(33,26,36,27)        179.9796         estimate D2E/DX2                !
 ! D89   D(28,27,29,30)         -0.0029         estimate D2E/DX2                !
 ! D90   D(28,27,29,35)       -179.9986         estimate D2E/DX2                !
 ! D91   D(36,27,29,30)        179.9896         estimate D2E/DX2                !
 ! D92   D(36,27,29,35)         -0.0062         estimate D2E/DX2                !
 ! D93   D(28,27,36,26)       -179.9911         estimate D2E/DX2                !
 ! D94   D(29,27,36,26)          0.0163         estimate D2E/DX2                !
 ! D95   D(27,29,35,25)         -0.0031         estimate D2E/DX2                !
 ! D96   D(30,29,35,25)       -179.9989         estimate D2E/DX2                !
 ! D97   D(25,31,34,33)          0.0085         estimate D2E/DX2                !
 ! D98   D(32,31,34,33)        179.9962         estimate D2E/DX2                !
 ! D99   D(3,33,34,31)         179.9378         estimate D2E/DX2                !
 ! D100  D(26,33,34,31)         -0.0084         estimate D2E/DX2                !
 --------------------------------------------------------------------------------
 Trust Radius=3.00D-01 FncErr=1.00D-07 GrdErr=1.00D-06
 Number of steps in this run=    216 maximum allowed number of steps=    216.
 GradGradGradGradGradGradGradGradGradGradGradGradGradGradGradGradGradGrad

                          Input orientation:                          
 ---------------------------------------------------------------------
 Center     Atomic      Atomic             Coordinates (Angstroms)
 Number     Number       Type             X           Y           Z
 ---------------------------------------------------------------------
      1          7           0        0.618217   -1.418779    2.367732
      2          6           0        1.071224   -0.076991    2.404075
      3          6           0        0.042744   -1.756612    1.147267
      4          6           0        0.106086   -0.623918    0.341882
      5          6           0        0.727870    0.420657    1.077243
      6          6           0        0.791208    1.553352    0.271859
      7          6           0       -0.237270   -0.126270   -0.984950
      8          7           0        0.215740    1.215517   -0.948609
      9          8           0        1.613144    0.453480    3.368905
     10          8           0       -0.779195   -0.656740   -1.949777
     11          1           0        0.136201    1.871049   -1.718717
     12          1           0        0.697733   -2.074303    3.137849
     13          6           0        1.328922    3.955883   -0.372220
     14          6           0        1.931169    5.135391    0.201839
     15          6           0        1.564563    6.261457   -1.724646
     16          1           0        1.633363    7.169489   -2.320302
     17          6           0        0.964977    5.090473   -2.298876
     18          1           0        0.588167    5.125054   -3.318706
     19          6           0        1.310428    2.861311    0.514413
     20          6           0        2.359682    4.925367    1.506794
     21          1           0        2.841025    5.637958    2.161914
     22         16           0        2.039157    3.327405    2.029698
     23          7           0        0.842917    3.953708   -1.647004
     24          7           0        2.042736    6.302097   -0.502675
     25          6           0       -1.097255   -5.338639    1.217301
     26          6           0       -0.495002   -4.159134    1.791359
     27          6           0       -0.131101   -5.293712    3.718031
     28          1           0        0.245690   -5.328287    4.737867
     29          6           0       -0.730689   -6.464694    3.143801
     30          1           0       -0.799506   -7.372721    3.739461
     31          6           0       -1.525752   -5.128619   -0.087661
     32          1           0       -2.007094   -5.841210   -0.742781
     33          6           0       -0.476485   -3.064569    0.904717
     34         16           0       -1.205201   -3.530666   -0.610572
     35          7           0       -1.208845   -6.505338    1.921823
     36          7           0       -0.009019   -4.156953    3.066150
 ---------------------------------------------------------------------
                    Distance matrix (angstroms):
                    1          2          3          4          5
     1  N    0.000000
     2  C    1.416662   0.000000
     3  C    1.390984   2.336336   0.000000
     4  C    2.235654   2.341636   1.391277   0.000000
     5  C    2.249647   1.458091   2.283594   1.420742   0.000000
     6  C    3.640903   2.698661   3.504625   2.283594   1.391277
     7  C    3.693632   3.633191   2.698661   1.458091   2.341637
     8  N    4.254365   3.693632   3.640903   2.249647   2.235656
     9  O    2.344692   1.227181   3.505187   3.548926   2.456929
    10  O    4.601559   4.766150   3.387770   2.456929   3.548926
    11  H    5.268242   4.654733   4.624124   3.236022   3.204856
    12  H    1.014453   2.160365   2.119518   3.204855   3.236021
    13  C    6.074490   4.902886   6.049437   4.793730   3.867820
    14  C    7.026527   5.723485   7.208307   6.043193   4.943984
    15  C    8.753808   7.580610   8.651777   7.335263   6.531890
    16  H    9.836998   8.668749   9.707182   8.375977   7.609860
    17  C    8.016722   6.987970   7.720686   6.353390   5.767285
    18  H    8.669385   7.748860   8.221905   6.832495   6.440127
    19  C    4.715201   3.501665   4.830397   3.691480   2.571564
    20  C    6.634915   5.242978   7.081406   6.101662   4.810378
    21  H    7.401403   5.987611   7.971170   7.071315   5.732553
    22  S    4.965843   3.559068   5.532773   4.711522   3.328037
    23  N    6.710604   5.719257   6.407494   5.045121   4.462870
    24  N    8.359451   7.077132   8.465522   7.241103   6.230277
    25  C    4.430760   5.813405   3.759710   4.943984   6.043194
    26  C    3.013471   4.415017   2.544826   3.867821   4.793732
    27  C    4.171318   5.512372   4.376086   5.767288   6.353393
    28  H    4.587000   5.805532   5.068576   6.440129   6.832498
    29  C    5.280444   6.678086   5.172077   6.531892   7.335265
    30  H    6.272241   7.649220   6.242558   7.609861   8.375979
    31  C    4.938468   6.202578   3.918630   4.810378   6.101662
    32  H    6.010445   7.252928   4.945509   5.732553   7.071315
    33  C    2.459148   3.683626   1.427999   2.571566   3.691482
    34  S    4.081080   5.118406   2.791887   3.328036   4.711522
    35  N    5.423105   6.837757   4.971600   6.230278   7.241104
    36  N    2.894617   4.272161   3.073504   4.462871   5.045123
                    6          7          8          9         10
     6  C    0.000000
     7  C    2.336336   0.000000
     8  N    1.390985   1.416662   0.000000
     9  O    3.387771   4.766151   4.601561   0.000000
    10  O    3.505187   1.227181   2.344692   5.936687   0.000000
    11  H    2.119518   2.160365   1.014453   5.484046   2.698343
    12  H    4.624123   4.654733   5.268242   2.698342   5.484044
    13  C    2.544824   4.415016   3.013470   5.132604   5.311227
    14  C    3.759710   5.813405   4.430761   5.661425   6.747170
    15  C    5.172075   6.678084   5.280442   7.725233   7.307895
    16  H    6.242557   7.649218   6.272239   8.801833   8.198023
    17  C    4.376083   5.512369   4.171314   7.351569   6.016183
    18  H    5.068574   5.805529   4.586997   8.221820   6.096949
    19  C    1.427998   3.683626   2.459149   3.746653   4.776551
    20  C    3.918630   6.202579   4.938469   4.901280   7.277386
    21  H    4.945509   7.252929   6.010446   5.462905   8.344772
    22  S    2.791888   5.118407   4.081082   3.199126   6.297042
    23  N    3.073503   4.272159   2.894615   6.164754   4.896851
    24  N    4.971600   6.837757   5.423105   7.027091   7.647406
    25  C    7.208307   5.723484   7.026527   6.747170   5.661424
    26  C    6.049439   4.902888   6.074492   5.311228   5.132604
    27  C    7.720689   6.987972   8.016726   6.016186   7.351570
    28  H    8.221908   7.748862   8.669387   6.096951   8.221820
    29  C    8.651779   7.580611   8.753810   7.307897   7.725233
    30  H    9.707184   8.668750   9.836999   8.198025   8.801832
    31  C    7.081405   5.242977   6.634914   7.277386   4.901278
    32  H    7.971169   5.987609   7.401402   8.344771   5.462903
    33  C    4.830398   3.501666   4.715202   4.776551   3.746653
    34  S    5.532773   3.559067   4.965843   6.297041   3.199125
    35  N    8.465523   7.077132   8.359451   7.647406   7.027089
    36  N    6.407496   5.719258   6.710607   4.896853   6.164754
                   11         12         13         14         15
    11  H    0.000000
    12  H    6.282305   0.000000
    13  C    2.753574   7.005864   0.000000
    14  C    4.191226   7.881701   1.443428   0.000000
    15  C    4.616918   9.689177   2.683329   2.261364   0.000000
    16  H    5.538670  10.775644   3.770275   3.253834   1.088146
    17  C    3.374633   8.997967   2.265337   2.681253   1.435426
    18  H    3.654146   9.671083   3.255374   3.768023   2.187644
    19  C    2.710405   5.622997   1.408740   2.377911   4.079088
    20  C    4.967560   7.376842   2.352246   1.389475   3.586022
    21  H    6.046898   8.063815   3.396714   2.218627   4.138050
    22  S    4.448913   5.675021   2.582369   2.573236   4.788423
    23  N    2.200468   7.697585   1.364287   2.449263   2.419195
    24  N    4.974718   9.231821   2.455864   1.367476   1.312827
    25  C    7.881701   4.191226   9.736583  10.950243  12.259794
    26  C    7.005866   2.753574   8.594258   9.736584  11.188960
    27  C    8.997971   3.374636  10.218455  11.197444  12.884873
    28  H    9.671086   3.654150  10.652802  11.528441  13.335129
    29  C    9.689179   4.616921  11.188960  12.259796  13.817557
    30  H   10.775646   5.538673  12.238194  13.282478  14.877369
    31  C    7.376841   4.967559   9.526716  10.834390  11.914848
    32  H    8.063814   6.046897  10.356126  11.699914  12.656830
    33  C    5.622999   2.710405   7.360490   8.574974   9.902231
    34  S    5.675022   4.448911   7.907402   9.251885  10.237110
    35  N    9.231822   4.974719  11.006364  12.178859  13.563907
    36  N    7.697587   2.200470   8.912384   9.915456  11.574591
                   16         17         18         19         20
    16  H    0.000000
    17  C    2.183920   0.000000
    18  H    2.503789   1.087766   0.000000
    19  C    5.167233   3.605980   4.509877   0.000000
    20  C    4.495585   4.056549   5.144277   2.519143   0.000000
    21  H    4.888179   4.870107   5.947742   3.573060   1.081045
    22  S    5.817970   4.795709   5.826005   1.744815   1.711621
    23  N    3.379258   1.316081   2.057070   2.466500   3.631961
    24  N    2.055170   2.419904   3.381010   3.661933   2.456381
    25  C   13.282476  11.197441  11.528438   8.574973  10.834391
    26  C   12.238194  10.218453  10.652801   7.360490   9.526718
    27  C   13.960880  12.051384  12.593002   8.879503  10.748169
    28  H   14.420048  12.593001  13.202197   9.275815  10.956560
    29  C   14.877369  12.884871  13.335128   9.902233  11.914851
    30  H   15.940999  13.960878  14.420046  10.935637  12.892177
    31  C   12.892174  10.748165  10.956556   8.499729  10.895940
    32  H   13.602198  11.434873  11.559832   9.397891  11.834209
    33  C   10.935637   8.879501   9.275813   6.201730   8.499730
    34  S   11.201515   9.048982   9.245088   6.960700   9.417862
    35  N   14.597077  12.530069  12.882485   9.801105  11.981972
    36  N   12.649094  10.735318  11.281785   7.583425   9.514771
                   21         22         23         24         25
    21  H    0.000000
    22  S    2.449312   0.000000
    23  N    4.619198   3.916808   0.000000
    24  N    2.859787   3.906625   2.874715   0.000000
    25  C   11.699916   9.251886   9.915454  12.178859   0.000000
    26  C   10.356129   7.907404   8.912383  11.006365   1.443428
    27  C   11.434878   9.048986  10.735320  12.530072   2.681254
    28  H   11.559837   9.245091  11.281786  12.882488   3.768022
    29  C   12.656833  10.237113  11.574591  13.563909   2.261365
    30  H   13.602202  11.201517  12.649093  14.597079   3.253834
    31  C   11.834209   9.417862   9.514768  11.981970   1.389476
    32  H   12.795031  10.398187  10.241123  12.803073   2.218627
    33  C    9.397893   6.960702   7.583424   9.801105   2.377911
    34  S   10.398187   8.033058   7.828463  10.355866   2.573235
    35  N   12.803075  10.355867  11.240013  13.434335   1.367476
    36  N   10.241127   7.828466   9.419259  11.240015   2.449262
                   26         27         28         29         30
    26  C    0.000000
    27  C    2.265338   0.000000
    28  H    3.255373   1.087765   0.000000
    29  C    2.683329   1.435425   2.187643   0.000000
    30  H    3.770274   2.183919   2.503789   1.088145   0.000000
    31  C    2.352246   4.056550   5.144278   3.586024   4.495586
    32  H    3.396714   4.870108   5.947741   4.138050   4.888178
    33  C    1.408740   3.605982   4.509877   4.079089   5.167232
    34  S    2.582369   4.795709   5.826004   4.788423   5.817969
    35  N    2.455864   2.419903   3.381009   1.312827   2.055169
    36  N    1.364286   1.316083   2.057070   2.419195   3.379257
                   31         32         33         34         35
    31  C    0.000000
    32  H    1.081045   0.000000
    33  C    2.519142   3.573059   0.000000
    34  S    1.711620   2.449311   1.744814   0.000000
    35  N    2.456382   2.859787   3.661932   3.906624   0.000000
    36  N    3.631961   4.619197   2.466500   3.916806   2.874714
                   36
    36  N    0.000000
 Symmetry turned off by external request.
 Stoichiometry    C18H8N6O2S2(1-,2)
 Framework group  C1[X(C18H8N6O2S2)]
 Deg. of freedom   102
 Full point group                 C1      NOp   1
 Rotational constants (GHZ):      0.4636123      0.0738764      0.0637223
 Standard basis: 6-31+G(d,p) (6D, 7F)
 Integral buffers will be    262144 words long.
 Raffenetti 2 integral format.
 Two-electron integral symmetry is turned off.
   580 basis functions,  1000 primitive gaussians,   580 cartesian basis functions
   104 alpha electrons      103 beta electrons
       nuclear repulsion energy      2659.1319098365 Hartrees.
 NAtoms=   36 NActive=   36 NUniq=   36 SFac= 1.00D+00 NAtFMM=   50 NAOKFM=F Big=F
 One-electron integrals computed using PRISM.
 NBasis=   580 RedAO= T  NBF=   580
 NBsUse=   573 1.00D-06 NBFU=   573
 Harris functional with IExCor=  402 diagonalized for initial guess.
 ExpMin= 4.05D-02 ExpMax= 2.19D+04 ExpMxC= 3.30D+03 IAcc=2 IRadAn=         0 AccDes= 0.00D+00
 HarFok:  IExCor=  402 AccDes= 0.00D+00 IRadAn=         0 IDoV= 1
 ScaDFX=  1.000000  1.000000  1.000000  1.000000
 FoFCou: FMM=F IPFlag=           0 FMFlag=      100000 FMFlg1=           0
         NFxFlg=           0 DoJE=T BraDBF=F KetDBF=T FulRan=T
         Omega=  0.000000  0.000000  1.000000  0.000000  0.000000 ICntrl=     500 IOpCl=  0
         NMat0=    1 NMatS0=    1 NMatT0=    0 NMatD0=    1 NMtDS0=    0 NMtDT0=    0
         I1Cent=           4 NGrid=           0.
 Symmetry not used in FoFCou.
 Initial guess <Sx>= 0.0000 <Sy>= 0.0000 <Sz>= 0.5000 <S**2>= 0.7500 S= 0.5000
 Requested convergence on RMS density matrix=1.00D-08 within 128 cycles.
 Requested convergence on MAX density matrix=1.00D-06.
 Requested convergence on             energy=1.00D-06.
 No special actions if energy rises.
 DSYEVD returned Info=        1147 IAlg= 4 N=   573 NDim=   573 NE2=       56239 trying DSYEV.
 Restarting incremental Fock formation.
 DSYEVD returned Info=       41471 IAlg= 4 N=   573 NDim=   573 NE2=       56239 trying DSYEV.
 SCF Done:  E(UB3LYP) =  -1966.19434594     A.U. after   22 cycles
             Convg  =    0.5965D-08             -V/T =  2.0067
 <Sx>= 0.0000 <Sy>= 0.0000 <Sz>= 0.5000 <S**2>= 0.8104 S= 0.5298
 <L.S>= 0.000000000000E+00
 Annihilation of the first spin contaminant:
 S**2 before annihilation     0.8104,   after     0.7515

 **********************************************************************

            Population analysis using the SCF density.

 **********************************************************************

 Alpha  occ. eigenvalues --  -88.82795 -88.82795 -19.02151 -19.02151 -14.26977
 Alpha  occ. eigenvalues --  -14.26977 -14.26612 -14.26612 -14.26058 -14.26058
 Alpha  occ. eigenvalues --  -10.18994 -10.18994 -10.15269 -10.15269 -10.14808
 Alpha  occ. eigenvalues --  -10.14808 -10.14503 -10.14503 -10.14470 -10.14470
 Alpha  occ. eigenvalues --  -10.14082 -10.14082 -10.13835 -10.13835 -10.12174
 Alpha  occ. eigenvalues --  -10.12173 -10.08466 -10.08418  -7.88635  -7.88635
 Alpha  occ. eigenvalues --   -5.85045  -5.85045  -5.84652  -5.84652  -5.84449
 Alpha  occ. eigenvalues --   -5.84448  -0.93757  -0.93261  -0.89453  -0.89452
 Alpha  occ. eigenvalues --   -0.86573  -0.85214  -0.82597  -0.82538  -0.78843
 Alpha  occ. eigenvalues --   -0.78803  -0.69922  -0.67707  -0.66785  -0.66727
 Alpha  occ. eigenvalues --   -0.66579  -0.60999  -0.58224  -0.57725  -0.57706
 Alpha  occ. eigenvalues --   -0.56511  -0.52887  -0.52813  -0.50841  -0.48223
 Alpha  occ. eigenvalues --   -0.45572  -0.44765  -0.44476  -0.43103  -0.42469
 Alpha  occ. eigenvalues --   -0.41125  -0.40248  -0.40159  -0.37718  -0.36252
 Alpha  occ. eigenvalues --   -0.36215  -0.35890  -0.35224  -0.34414  -0.34209
 Alpha  occ. eigenvalues --   -0.33542  -0.33347  -0.32276  -0.31938  -0.31519
 Alpha  occ. eigenvalues --   -0.31303  -0.30689  -0.28304  -0.28187  -0.27554
 Alpha  occ. eigenvalues --   -0.26125  -0.26000  -0.25940  -0.25785  -0.23488
 Alpha  occ. eigenvalues --   -0.23218  -0.23187  -0.23134  -0.17445  -0.17390
 Alpha  occ. eigenvalues --   -0.17042  -0.16543  -0.16186  -0.15517  -0.15122
 Alpha  occ. eigenvalues --   -0.15066  -0.14727  -0.08709  -0.04370
 Alpha virt. eigenvalues --   -0.00631   0.02632   0.07149   0.07899   0.07921
 Alpha virt. eigenvalues --    0.08579   0.08620   0.09170   0.09180   0.10125
 Alpha virt. eigenvalues --    0.10460   0.10495   0.10933   0.10993   0.12437
 Alpha virt. eigenvalues --    0.12461   0.12688   0.13004   0.13236   0.13309
 Alpha virt. eigenvalues --    0.13331   0.13563   0.14504   0.15051   0.15205
 Alpha virt. eigenvalues --    0.15506   0.15607   0.15885   0.16355   0.16414
 Alpha virt. eigenvalues --    0.16523   0.17280   0.17547   0.18215   0.18354
 Alpha virt. eigenvalues --    0.18377   0.19345   0.19489   0.19651   0.20405
 Alpha virt. eigenvalues --    0.20663   0.20796   0.21044   0.21713   0.21827
 Alpha virt. eigenvalues --    0.22078   0.22219   0.23061   0.23085   0.23288
 Alpha virt. eigenvalues --    0.23672   0.23785   0.23795   0.24186   0.24760
 Alpha virt. eigenvalues --    0.25184   0.25213   0.25410   0.25828   0.26196
 Alpha virt. eigenvalues --    0.26376   0.26545   0.26827   0.27003   0.27035
 Alpha virt. eigenvalues --    0.27403   0.27768   0.28086   0.28315   0.28316
 Alpha virt. eigenvalues --    0.28569   0.29112   0.29294   0.29598   0.29929
 Alpha virt. eigenvalues --    0.30030   0.30147   0.30748   0.30947   0.30997
 Alpha virt. eigenvalues --    0.31632   0.31868   0.32359   0.32412   0.32719
 Alpha virt. eigenvalues --    0.33207   0.33261   0.33908   0.34206   0.34427
 Alpha virt. eigenvalues --    0.34466   0.35220   0.35359   0.35679   0.35683
 Alpha virt. eigenvalues --    0.35696   0.36304   0.36597   0.36610   0.36984
 Alpha virt. eigenvalues --    0.37130   0.37454   0.37559   0.38049   0.38287
 Alpha virt. eigenvalues --    0.38409   0.39088   0.39313   0.39858   0.39879
 Alpha virt. eigenvalues --    0.40114   0.40606   0.40704   0.41305   0.41317
 Alpha virt. eigenvalues --    0.41418   0.41506   0.41722   0.42645   0.42655
 Alpha virt. eigenvalues --    0.42698   0.42923   0.42992   0.43635   0.44048
 Alpha virt. eigenvalues --    0.44782   0.44957   0.45548   0.46901   0.47063
 Alpha virt. eigenvalues --    0.47440   0.47900   0.48740   0.49482   0.49604
 Alpha virt. eigenvalues --    0.50044   0.50591   0.52177   0.52701   0.54123
 Alpha virt. eigenvalues --    0.54482   0.55223   0.55752   0.56849   0.57740
 Alpha virt. eigenvalues --    0.58578   0.58596   0.60293   0.60620   0.61258
 Alpha virt. eigenvalues --    0.62028   0.62344   0.63841   0.64568   0.65606
 Alpha virt. eigenvalues --    0.67034   0.68061   0.69510   0.71234   0.71640
 Alpha virt. eigenvalues --    0.72482   0.73464   0.74418   0.74641   0.75408
 Alpha virt. eigenvalues --    0.76047   0.76230   0.76235   0.77362   0.77419
 Alpha virt. eigenvalues --    0.77862   0.78399   0.78778   0.81080   0.81522
 Alpha virt. eigenvalues --    0.81570   0.82365   0.83107   0.83185   0.83628
 Alpha virt. eigenvalues --    0.84490   0.84616   0.85652   0.86409   0.86542
 Alpha virt. eigenvalues --    0.87881   0.89476   0.89823   0.90879   0.91363
 Alpha virt. eigenvalues --    0.92011   0.92496   0.92668   0.93015   0.95012
 Alpha virt. eigenvalues --    0.95046   0.95268   0.95592   0.96129   0.96510
 Alpha virt. eigenvalues --    0.97766   0.98064   0.98946   1.00669   1.01444
 Alpha virt. eigenvalues --    1.01906   1.03269   1.03302   1.03438   1.03532
 Alpha virt. eigenvalues --    1.03920   1.05759   1.06652   1.07217   1.07592
 Alpha virt. eigenvalues --    1.09217   1.09375   1.10877   1.11243   1.11400
 Alpha virt. eigenvalues --    1.12842   1.12900   1.15271   1.15280   1.15403
 Alpha virt. eigenvalues --    1.15584   1.16548   1.16604   1.18181   1.18451
 Alpha virt. eigenvalues --    1.19276   1.20771   1.22233   1.22331   1.23317
 Alpha virt. eigenvalues --    1.24169   1.25445   1.25955   1.26666   1.28165
 Alpha virt. eigenvalues --    1.28375   1.29723   1.30053   1.31400   1.32195
 Alpha virt. eigenvalues --    1.32620   1.32761   1.33291   1.35159   1.35320
 Alpha virt. eigenvalues --    1.35370   1.35488   1.35662   1.37355   1.37400
 Alpha virt. eigenvalues --    1.37846   1.38858   1.39570   1.40607   1.41016
 Alpha virt. eigenvalues --    1.41712   1.42421   1.42728   1.43163   1.44309
 Alpha virt. eigenvalues --    1.44655   1.45354   1.46008   1.46010   1.46629
 Alpha virt. eigenvalues --    1.46821   1.46912   1.48234   1.49148   1.49653
 Alpha virt. eigenvalues --    1.52180   1.52480   1.52698   1.53048   1.54417
 Alpha virt. eigenvalues --    1.54479   1.54499   1.54712   1.55596   1.56036
 Alpha virt. eigenvalues --    1.56078   1.59109   1.59146   1.61301   1.61809
 Alpha virt. eigenvalues --    1.63068   1.64846   1.65138   1.66041   1.69922
 Alpha virt. eigenvalues --    1.69952   1.72806   1.76485   1.77087   1.77171
 Alpha virt. eigenvalues --    1.77690   1.78203   1.80230   1.82329   1.84783
 Alpha virt. eigenvalues --    1.86268   1.86335   1.87516   1.89619   1.90036
 Alpha virt. eigenvalues --    1.91754   1.92079   1.92741   1.93643   1.93688
 Alpha virt. eigenvalues --    1.94495   1.94535   1.94921   1.96143   1.96378
 Alpha virt. eigenvalues --    1.98995   1.99332   2.01204   2.01425   2.02148
 Alpha virt. eigenvalues --    2.02163   2.03509   2.05605   2.07419   2.08724
 Alpha virt. eigenvalues --    2.09503   2.10233   2.10793   2.11067   2.12673
 Alpha virt. eigenvalues --    2.12893   2.13807   2.14183   2.15633   2.17685
 Alpha virt. eigenvalues --    2.17820   2.19296   2.21830   2.24468   2.25858
 Alpha virt. eigenvalues --    2.26855   2.26941   2.28262   2.29323   2.29446
 Alpha virt. eigenvalues --    2.29744   2.30206   2.31382   2.32545   2.35411
 Alpha virt. eigenvalues --    2.36000   2.37093   2.37457   2.38494   2.39088
 Alpha virt. eigenvalues --    2.40885   2.41634   2.42519   2.44685   2.45311
 Alpha virt. eigenvalues --    2.45511   2.46744   2.49407   2.49839   2.50716
 Alpha virt. eigenvalues --    2.51706   2.51724   2.51917   2.53405   2.53759
 Alpha virt. eigenvalues --    2.54828   2.56576   2.57102   2.57967   2.58788
 Alpha virt. eigenvalues --    2.60546   2.60927   2.63725   2.64725   2.64781
 Alpha virt. eigenvalues --    2.65741   2.66460   2.68333   2.68393   2.69495
 Alpha virt. eigenvalues --    2.71742   2.72147   2.73099   2.73651   2.74043
 Alpha virt. eigenvalues --    2.76443   2.76865   2.79589   2.80521   2.80691
 Alpha virt. eigenvalues --    2.81054   2.82406   2.83871   2.85395   2.88056
 Alpha virt. eigenvalues --    2.89841   2.91363   2.91888   2.92872   2.96793
 Alpha virt. eigenvalues --    2.99534   3.01821   3.02367   3.05605   3.06732
 Alpha virt. eigenvalues --    3.07528   3.07724   3.10218   3.12480   3.15413
 Alpha virt. eigenvalues --    3.17610   3.20207   3.20547   3.23006   3.29090
 Alpha virt. eigenvalues --    3.32524   3.33244   3.37746   3.39532   3.40036
 Alpha virt. eigenvalues --    3.40665   3.41604   3.43230   3.48162   3.57596
 Alpha virt. eigenvalues --    3.58151   3.58390   3.71878   3.72717   3.79411
 Alpha virt. eigenvalues --    3.79626   4.07985   4.08509   4.27319   4.28506
 Alpha virt. eigenvalues --    4.36963   4.40586   4.40914   4.44930   4.46518
 Alpha virt. eigenvalues --    4.47912   4.49616   4.50155   4.55542   4.56660
 Alpha virt. eigenvalues --    4.61258   4.62051   4.63479   4.66103   4.66338
 Alpha virt. eigenvalues --    4.72498   4.76232   4.77599   4.84378   4.90509
 Alpha virt. eigenvalues --    4.90748   4.94366   5.16108   5.24406
  Beta  occ. eigenvalues --  -88.82725 -88.82725 -19.02099 -19.02099 -14.26972
  Beta  occ. eigenvalues --  -14.26972 -14.26608 -14.26608 -14.25823 -14.25823
  Beta  occ. eigenvalues --  -10.18982 -10.18982 -10.15114 -10.15114 -10.14879
  Beta  occ. eigenvalues --  -10.14879 -10.14468 -10.14468 -10.14305 -10.14305
  Beta  occ. eigenvalues --  -10.14163 -10.14163 -10.13886 -10.13886 -10.11884
  Beta  occ. eigenvalues --  -10.11884 -10.08518 -10.08470  -7.88567  -7.88567
  Beta  occ. eigenvalues --   -5.85007  -5.85006  -5.84618  -5.84618  -5.84217
  Beta  occ. eigenvalues --   -5.84217  -0.93676  -0.93175  -0.89274  -0.89272
  Beta  occ. eigenvalues --   -0.86472  -0.85093  -0.82350  -0.82296  -0.78643
  Beta  occ. eigenvalues --   -0.78603  -0.69946  -0.67500  -0.66633  -0.66461
  Beta  occ. eigenvalues --   -0.66254  -0.60881  -0.58026  -0.57438  -0.57375
  Beta  occ. eigenvalues --   -0.56471  -0.52736  -0.52592  -0.50669  -0.48059
  Beta  occ. eigenvalues --   -0.45482  -0.44661  -0.44370  -0.43060  -0.42356
  Beta  occ. eigenvalues --   -0.40977  -0.40162  -0.40079  -0.37679  -0.36160
  Beta  occ. eigenvalues --   -0.35958  -0.35820  -0.34827  -0.34169  -0.34061
  Beta  occ. eigenvalues --   -0.33435  -0.33240  -0.32207  -0.31869  -0.31235
  Beta  occ. eigenvalues --   -0.31192  -0.30572  -0.28154  -0.27759  -0.26911
  Beta  occ. eigenvalues --   -0.25703  -0.25540  -0.25381  -0.25312  -0.23069
  Beta  occ. eigenvalues --   -0.23034  -0.22872  -0.22645  -0.16953  -0.16786
  Beta  occ. eigenvalues --   -0.16669  -0.16399  -0.16077  -0.15535  -0.15076
  Beta  occ. eigenvalues --   -0.14410  -0.13930  -0.07801
  Beta virt. eigenvalues --   -0.00382   0.00911   0.03351   0.07630   0.07889
  Beta virt. eigenvalues --    0.07910   0.09205   0.09218   0.09266   0.09299
  Beta virt. eigenvalues --    0.10129   0.10457   0.10514   0.10956   0.11356
  Beta virt. eigenvalues --    0.12469   0.12509   0.12700   0.13131   0.13269
  Beta virt. eigenvalues --    0.13335   0.13519   0.13566   0.14535   0.15062
  Beta virt. eigenvalues --    0.15370   0.15590   0.15659   0.16076   0.16358
  Beta virt. eigenvalues --    0.16464   0.16542   0.17329   0.17578   0.18230
  Beta virt. eigenvalues --    0.18407   0.18567   0.19390   0.19616   0.19674
  Beta virt. eigenvalues --    0.20474   0.20771   0.20985   0.21095   0.21769
  Beta virt. eigenvalues --    0.21882   0.22110   0.22182   0.23100   0.23298
  Beta virt. eigenvalues --    0.23362   0.23802   0.23906   0.23995   0.24187
  Beta virt. eigenvalues --    0.25105   0.25202   0.25221   0.25699   0.25890
  Beta virt. eigenvalues --    0.26225   0.26412   0.26582   0.26876   0.27023
  Beta virt. eigenvalues --    0.27059   0.27432   0.27827   0.28084   0.28354
  Beta virt. eigenvalues --    0.28377   0.28568   0.29167   0.29356   0.29662
  Beta virt. eigenvalues --    0.29948   0.30073   0.30183   0.30841   0.30980
  Beta virt. eigenvalues --    0.31018   0.31675   0.31958   0.32372   0.32476
  Beta virt. eigenvalues --    0.32753   0.33237   0.33274   0.33921   0.34255
  Beta virt. eigenvalues --    0.34485   0.34495   0.35289   0.35449   0.35718
  Beta virt. eigenvalues --    0.35737   0.35738   0.36328   0.36630   0.36656
  Beta virt. eigenvalues --    0.37073   0.37155   0.37516   0.37607   0.38097
  Beta virt. eigenvalues --    0.38322   0.38456   0.39145   0.39346   0.39894
  Beta virt. eigenvalues --    0.39939   0.40165   0.40687   0.40784   0.41314
  Beta virt. eigenvalues --    0.41406   0.41474   0.41553   0.41760   0.42668
  Beta virt. eigenvalues --    0.42691   0.42716   0.42983   0.43012   0.43675
  Beta virt. eigenvalues --    0.44067   0.44806   0.44994   0.45596   0.46989
  Beta virt. eigenvalues --    0.47132   0.47531   0.47949   0.48818   0.49545
  Beta virt. eigenvalues --    0.49673   0.50086   0.50669   0.52236   0.52710
  Beta virt. eigenvalues --    0.54165   0.54560   0.55321   0.55810   0.56874
  Beta virt. eigenvalues --    0.57811   0.58629   0.58643   0.60356   0.60683
  Beta virt. eigenvalues --    0.61633   0.62078   0.62718   0.63895   0.64648
  Beta virt. eigenvalues --    0.65657   0.67131   0.68138   0.69604   0.71298
  Beta virt. eigenvalues --    0.71734   0.72570   0.73808   0.75130   0.75338
  Beta virt. eigenvalues --    0.75772   0.76110   0.76693   0.76699   0.77453
  Beta virt. eigenvalues --    0.77533   0.77945   0.78476   0.78908   0.81202
  Beta virt. eigenvalues --    0.81610   0.81969   0.82693   0.83120   0.83370
  Beta virt. eigenvalues --    0.83812   0.84535   0.84790   0.85957   0.86562
  Beta virt. eigenvalues --    0.86590   0.88285   0.89497   0.90083   0.90928
  Beta virt. eigenvalues --    0.91407   0.92139   0.92666   0.92759   0.93116
  Beta virt. eigenvalues --    0.95056   0.95088   0.95628   0.95748   0.96180
  Beta virt. eigenvalues --    0.96576   0.97817   0.98133   0.98968   1.00848
  Beta virt. eigenvalues --    1.01634   1.02175   1.03326   1.03382   1.03615
  Beta virt. eigenvalues --    1.03638   1.03969   1.05856   1.06781   1.07668
  Beta virt. eigenvalues --    1.07954   1.09268   1.09541   1.10928   1.11290
  Beta virt. eigenvalues --    1.11494   1.12965   1.12971   1.15330   1.15639
  Beta virt. eigenvalues --    1.15715   1.15757   1.16659   1.16703   1.18268
  Beta virt. eigenvalues --    1.18497   1.19362   1.20874   1.22360   1.22391
  Beta virt. eigenvalues --    1.23331   1.24245   1.25542   1.26110   1.26885
  Beta virt. eigenvalues --    1.28389   1.28557   1.29805   1.30130   1.31618
  Beta virt. eigenvalues --    1.32419   1.32736   1.32831   1.33445   1.35230
  Beta virt. eigenvalues --    1.35388   1.35422   1.35656   1.35737   1.37402
  Beta virt. eigenvalues --    1.37552   1.38026   1.39011   1.39611   1.40619
  Beta virt. eigenvalues --    1.41120   1.41797   1.42478   1.43123   1.43523
  Beta virt. eigenvalues --    1.44409   1.44712   1.45458   1.46304   1.46317
  Beta virt. eigenvalues --    1.46749   1.46851   1.46961   1.48347   1.49205
  Beta virt. eigenvalues --    1.49733   1.52312   1.52553   1.52728   1.53143
  Beta virt. eigenvalues --    1.54516   1.54733   1.54751   1.54782   1.55656
  Beta virt. eigenvalues --    1.56258   1.56300   1.59206   1.59214   1.61445
  Beta virt. eigenvalues --    1.61960   1.63149   1.64891   1.65254   1.66121
  Beta virt. eigenvalues --    1.70010   1.70076   1.72871   1.76561   1.77178
  Beta virt. eigenvalues --    1.77897   1.78323   1.78586   1.80544   1.82415
  Beta virt. eigenvalues --    1.84946   1.86343   1.86440   1.87552   1.89686
  Beta virt. eigenvalues --    1.90145   1.91859   1.92129   1.92864   1.93756
  Beta virt. eigenvalues --    1.93930   1.94580   1.94666   1.95024   1.96291
  Beta virt. eigenvalues --    1.96481   1.99073   1.99407   2.01274   2.01506
  Beta virt. eigenvalues --    2.02179   2.02192   2.03598   2.05679   2.07480
  Beta virt. eigenvalues --    2.08839   2.09620   2.10314   2.10932   2.11214
  Beta virt. eigenvalues --    2.13163   2.13398   2.13891   2.14267   2.15739
  Beta virt. eigenvalues --    2.17736   2.17927   2.19361   2.21895   2.24666
  Beta virt. eigenvalues --    2.26022   2.27203   2.27210   2.28294   2.29275
  Beta virt. eigenvalues --    2.29405   2.29853   2.30383   2.31701   2.32726
  Beta virt. eigenvalues --    2.35596   2.36065   2.37165   2.37569   2.38680
  Beta virt. eigenvalues --    2.39252   2.41189   2.41942   2.42747   2.44956
  Beta virt. eigenvalues --    2.45523   2.45987   2.47048   2.49538   2.49814
  Beta virt. eigenvalues --    2.50877   2.51924   2.52121   2.52142   2.53506
  Beta virt. eigenvalues --    2.53867   2.54876   2.56683   2.57253   2.57986
  Beta virt. eigenvalues --    2.58909   2.60752   2.61114   2.63748   2.65105
  Beta virt. eigenvalues --    2.65173   2.65785   2.66485   2.68386   2.68465
  Beta virt. eigenvalues --    2.69569   2.71816   2.72187   2.73212   2.73891
  Beta virt. eigenvalues --    2.74287   2.76642   2.76876   2.79627   2.80744
  Beta virt. eigenvalues --    2.80777   2.81184   2.82623   2.83929   2.85488
  Beta virt. eigenvalues --    2.88125   2.89966   2.91541   2.92008   2.92916
  Beta virt. eigenvalues --    2.96836   2.99612   3.01813   3.02443   3.05740
  Beta virt. eigenvalues --    3.06886   3.07607   3.07791   3.10298   3.12567
  Beta virt. eigenvalues --    3.15506   3.17654   3.20229   3.20596   3.23038
  Beta virt. eigenvalues --    3.29165   3.32570   3.33287   3.37791   3.39571
  Beta virt. eigenvalues --    3.40064   3.40693   3.41668   3.43290   3.48185
  Beta virt. eigenvalues --    3.57663   3.58270   3.58471   3.71908   3.72739
  Beta virt. eigenvalues --    3.79461   3.79675   4.08186   4.08710   4.27487
  Beta virt. eigenvalues --    4.28682   4.37006   4.40732   4.41065   4.44953
  Beta virt. eigenvalues --    4.46740   4.48019   4.49822   4.50272   4.55506
  Beta virt. eigenvalues --    4.56712   4.61456   4.62067   4.63533   4.66397
  Beta virt. eigenvalues --    4.66651   4.72629   4.76386   4.77736   4.84539
  Beta virt. eigenvalues --    4.90583   4.90815   4.94448   5.16153   5.24452
          Condensed to atoms (all electrons):
              1          2          3          4          5          6
     1  N    7.476370   0.562887   0.076898  -0.179144  -0.624442   0.108041
     2  C    0.562887  10.049429  -1.175193  -1.561174  -3.066267   0.289602
     3  C    0.076898  -1.175193   7.254014  -0.034720  -0.085972  -0.006498
     4  C   -0.179144  -1.561174  -0.034720  11.537120  -0.294834  -0.085983
     5  C   -0.624442  -3.066267  -0.085972  -0.294834  11.537083  -0.034724
     6  C    0.108041   0.289602  -0.006498  -0.085983  -0.034724   7.254014
     7  C    0.086671   1.414020   0.289591  -3.066286  -1.561158  -1.175184
     8  N    0.009866   0.086671   0.108040  -0.624444  -0.179143   0.076900
     9  O   -0.090865   0.215554   0.065291  -0.048454   0.016695   0.013603
    10  O   -0.007872  -0.032339   0.013604   0.016697  -0.048454   0.065291
    11  H    0.000241   0.011015  -0.003529  -0.008570   0.055744  -0.010069
    12  H    0.290308  -0.059161  -0.010069   0.055743  -0.008569  -0.003529
    13  C    0.015789  -0.081544  -0.036619  -0.052504   0.137339   0.179706
    14  C   -0.002708  -0.101240  -0.075097   0.022805  -0.462066  -0.679888
    15  C    0.000076  -0.011502   0.000331   0.045168  -0.045499  -0.001670
    16  H    0.000000   0.000023  -0.000004  -0.000180   0.000137  -0.003380
    17  C    0.000131   0.009710   0.000784  -0.086282   0.079591   0.017876
    18  H    0.000000   0.000105  -0.000004  -0.000708   0.000727   0.006702
    19  C   -0.108746  -0.952532  -0.251329   1.201666   0.248233   0.109568
    20  C    0.000038   0.269089  -0.013146  -0.410001   0.240318  -0.028919
    21  H    0.000002   0.000216   0.000018   0.000154  -0.000035  -0.004122
    22  S    0.008143  -0.035778  -0.027537   0.074607  -0.262766  -0.193961
    23  N   -0.000441  -0.003480   0.006832   0.012740  -0.008841   0.037676
    24  N    0.000063   0.001492   0.000664  -0.002971   0.015535   0.011964
    25  C    0.028238   0.049196  -0.679885  -0.462068   0.022807  -0.075097
    26  C    0.053339   0.073727   0.179708   0.137338  -0.052511  -0.036618
    27  C   -0.043547  -0.014607   0.017874   0.079592  -0.086282   0.000785
    28  H   -0.001779  -0.000674   0.006702   0.000727  -0.000708  -0.000004
    29  C    0.011276  -0.004015  -0.001669  -0.045499   0.045168   0.000331
    30  H   -0.000017   0.000041  -0.003380   0.000137  -0.000180  -0.000004
    31  C   -0.032663   0.099353  -0.028927   0.240320  -0.410000  -0.013145
    32  H    0.000134  -0.000072  -0.004122  -0.000035   0.000154   0.000018
    33  C   -0.204407  -0.847451   0.109579   0.248236   1.201656  -0.251333
    34  S    0.023685   0.035143  -0.193959  -0.262767   0.074608  -0.027537
    35  N    0.001426   0.001662   0.011964   0.015535  -0.002971   0.000664
    36  N    0.005998  -0.033504   0.037676  -0.008841   0.012741   0.006832
              7          8          9         10         11         12
     1  N    0.086671   0.009866  -0.090865  -0.007872   0.000241   0.290308
     2  C    1.414020   0.086671   0.215554  -0.032339   0.011015  -0.059161
     3  C    0.289591   0.108040   0.065291   0.013604  -0.003529  -0.010069
     4  C   -3.066286  -0.624444  -0.048454   0.016697  -0.008570   0.055743
     5  C   -1.561158  -0.179143   0.016695  -0.048454   0.055744  -0.008569
     6  C   -1.175184   0.076900   0.013603   0.065291  -0.010069  -0.003529
     7  C   10.049437   0.562887  -0.032339   0.215553  -0.059161   0.011015
     8  N    0.562887   7.476371  -0.007872  -0.090866   0.290308   0.000241
     9  O   -0.032339  -0.007872   8.443376   0.000181  -0.000007   0.000091
    10  O    0.215553  -0.090866   0.000181   8.443376   0.000091  -0.000007
    11  H   -0.059161   0.290308  -0.000007   0.000091   0.366833   0.000000
    12  H    0.011015   0.000241   0.000091  -0.000007   0.000000   0.366833
    13  C    0.073723   0.053339   0.003814  -0.010237   0.034677   0.000006
    14  C    0.049196   0.028238  -0.015765   0.000061   0.016124  -0.000024
    15  C   -0.004014   0.011276  -0.000022   0.000173  -0.001639   0.000000
    16  H    0.000041  -0.000017   0.000000   0.000000  -0.000001   0.000000
    17  C   -0.014607  -0.043548   0.000222  -0.000391  -0.002557   0.000000
    18  H   -0.000674  -0.001779   0.000000  -0.000005  -0.000243   0.000000
    19  C   -0.847452  -0.204407  -0.009418   0.031262  -0.055286  -0.001910
    20  C    0.099353  -0.032663   0.022412  -0.001264   0.003850   0.000017
    21  H   -0.000072   0.000134  -0.000018   0.000000   0.000000   0.000000
    22  S    0.035144   0.023685  -0.025051  -0.001080  -0.007013   0.001199
    23  N   -0.033504   0.005998   0.000068  -0.000609   0.034896  -0.000001
    24  N    0.001662   0.001426   0.000008  -0.000009   0.000081   0.000000
    25  C   -0.101241  -0.002708   0.000061  -0.015765  -0.000024   0.016124
    26  C   -0.081539   0.015790  -0.010237   0.003814   0.000006   0.034677
    27  C    0.009710   0.000131  -0.000391   0.000222   0.000000  -0.002557
    28  H    0.000105   0.000000  -0.000005   0.000000   0.000000  -0.000243
    29  C   -0.011502   0.000076   0.000173  -0.000022   0.000000  -0.001639
    30  H    0.000023   0.000000   0.000000   0.000000   0.000000  -0.000001
    31  C    0.269090   0.000038  -0.001264   0.022412   0.000017   0.003850
    32  H    0.000216   0.000002   0.000000  -0.000018   0.000000   0.000000
    33  C   -0.952533  -0.108747   0.031262  -0.009418  -0.001910  -0.055286
    34  S   -0.035779   0.008143  -0.001080  -0.025051   0.001199  -0.007013
    35  N    0.001492   0.000063  -0.000009   0.000008   0.000000   0.000081
    36  N   -0.003480  -0.000441  -0.000609   0.000068  -0.000001   0.034896
             13         14         15         16         17         18
     1  N    0.015789  -0.002708   0.000076   0.000000   0.000131   0.000000
     2  C   -0.081544  -0.101240  -0.011502   0.000023   0.009710   0.000105
     3  C   -0.036619  -0.075097   0.000331  -0.000004   0.000784  -0.000004
     4  C   -0.052504   0.022805   0.045168  -0.000180  -0.086282  -0.000708
     5  C    0.137339  -0.462066  -0.045499   0.000137   0.079591   0.000727
     6  C    0.179706  -0.679888  -0.001670  -0.003380   0.017876   0.006702
     7  C    0.073723   0.049196  -0.004014   0.000041  -0.014607  -0.000674
     8  N    0.053339   0.028238   0.011276  -0.000017  -0.043548  -0.001779
     9  O    0.003814  -0.015765  -0.000022   0.000000   0.000222   0.000000
    10  O   -0.010237   0.000061   0.000173   0.000000  -0.000391  -0.000005
    11  H    0.034677   0.016124  -0.001639  -0.000001  -0.002557  -0.000243
    12  H    0.000006  -0.000024   0.000000   0.000000   0.000000   0.000000
    13  C   10.592047  -2.494110   0.094960  -0.189822  -0.600485   0.035359
    14  C   -2.494110  13.156299   0.604501   0.194958  -0.423974  -0.025848
    15  C    0.094960   0.604501   5.701681   0.349720  -0.166951  -0.100197
    16  H   -0.189822   0.194958   0.349720   0.626403  -0.038896   0.000673
    17  C   -0.600485  -0.423974  -0.166951  -0.038896   6.122858   0.466172
    18  H    0.035359  -0.025848  -0.100197   0.000673   0.466172   0.613636
    19  C    0.552168  -1.553654  -0.232011  -0.006215   0.144784   0.001202
    20  C   -3.339691  -2.354386  -0.633410   0.067011   0.422279   0.000993
    21  H   -0.015275   0.049813  -0.003986  -0.000006   0.002274   0.000000
    22  S   -0.025476   0.376360   0.014765  -0.000925   0.007884  -0.000666
    23  N    0.350622  -0.046110   0.151224   0.011479  -0.014118  -0.109323
    24  N    0.842970  -0.374614   0.309425  -0.115368  -0.048661   0.006908
    25  C   -0.002006   0.000054   0.000006   0.000000  -0.000045   0.000000
    26  C   -0.000698  -0.002006  -0.000035   0.000000   0.000091   0.000000
    27  C    0.000091  -0.000045   0.000000   0.000000   0.000002   0.000000
    28  H    0.000000   0.000000   0.000000   0.000000   0.000000   0.000000
    29  C   -0.000035   0.000006   0.000000   0.000000   0.000000   0.000000
    30  H    0.000000   0.000000   0.000000   0.000000   0.000000   0.000000
    31  C    0.001043  -0.000146  -0.000001   0.000000   0.000006   0.000000
    32  H    0.000000   0.000000   0.000000   0.000000   0.000000   0.000000
    33  C   -0.037457   0.006792   0.000850   0.000000  -0.002348  -0.000001
    34  S    0.000039   0.000546   0.000012   0.000000  -0.000482   0.000000
    35  N    0.000005   0.000000   0.000000   0.000000   0.000000   0.000000
    36  N    0.000065  -0.000001   0.000000   0.000000   0.000002   0.000000
             19         20         21         22         23         24
     1  N   -0.108746   0.000038   0.000002   0.008143  -0.000441   0.000063
     2  C   -0.952532   0.269089   0.000216  -0.035778  -0.003480   0.001492
     3  C   -0.251329  -0.013146   0.000018  -0.027537   0.006832   0.000664
     4  C    1.201666  -0.410001   0.000154   0.074607   0.012740  -0.002971
     5  C    0.248233   0.240318  -0.000035  -0.262766  -0.008841   0.015535
     6  C    0.109568  -0.028919  -0.004122  -0.193961   0.037676   0.011964
     7  C   -0.847452   0.099353  -0.000072   0.035144  -0.033504   0.001662
     8  N   -0.204407  -0.032663   0.000134   0.023685   0.005998   0.001426
     9  O   -0.009418   0.022412  -0.000018  -0.025051   0.000068   0.000008
    10  O    0.031262  -0.001264   0.000000  -0.001080  -0.000609  -0.000009
    11  H   -0.055286   0.003850   0.000000  -0.007013   0.034896   0.000081
    12  H   -0.001910   0.000017   0.000000   0.001199  -0.000001   0.000000
    13  C    0.552168  -3.339691  -0.015275  -0.025476   0.350622   0.842970
    14  C   -1.553654  -2.354386   0.049813   0.376360  -0.046110  -0.374614
    15  C   -0.232011  -0.633410  -0.003986   0.014765   0.151224   0.309425
    16  H   -0.006215   0.067011  -0.000006  -0.000925   0.011479  -0.115368
    17  C    0.144784   0.422279   0.002274   0.007884  -0.014118  -0.048661
    18  H    0.001202   0.000993   0.000000  -0.000666  -0.109323   0.006908
    19  C    8.252328  -0.022695   0.017276   0.093269  -0.170883   0.102238
    20  C   -0.022695  12.900280   0.284358  -0.455220  -0.044049  -0.696321
    21  H    0.017276   0.284358   0.528211  -0.002027  -0.000319  -0.003870
    22  S    0.093269  -0.455220  -0.002027  16.091320   0.022902   0.043927
    23  N   -0.170883  -0.044049  -0.000319   0.022902   7.068537  -0.039722
    24  N    0.102238  -0.696321  -0.003870   0.043927  -0.039722   7.220623
    25  C    0.006792  -0.000146   0.000000   0.000546  -0.000001   0.000000
    26  C   -0.037458   0.001043   0.000000   0.000039   0.000065   0.000005
    27  C   -0.002348   0.000006   0.000000  -0.000482   0.000002   0.000000
    28  H   -0.000001   0.000000   0.000000   0.000000   0.000000   0.000000
    29  C    0.000850  -0.000001   0.000000   0.000012   0.000000   0.000000
    30  H    0.000000   0.000000   0.000000   0.000000   0.000000   0.000000
    31  C   -0.015634   0.000089   0.000000  -0.000769  -0.000025   0.000000
    32  H    0.000001   0.000000   0.000000   0.000000   0.000000   0.000000
    33  C    0.270411  -0.015634   0.000001  -0.002204  -0.000976  -0.000054
    34  S   -0.002203  -0.000769   0.000000   0.000152   0.000299   0.000005
    35  N   -0.000054   0.000000   0.000000   0.000005   0.000000   0.000000
    36  N   -0.000976  -0.000025   0.000000   0.000299   0.000003   0.000000
             25         26         27         28         29         30
     1  N    0.028238   0.053339  -0.043547  -0.001779   0.011276  -0.000017
     2  C    0.049196   0.073727  -0.014607  -0.000674  -0.004015   0.000041
     3  C   -0.679885   0.179708   0.017874   0.006702  -0.001669  -0.003380
     4  C   -0.462068   0.137338   0.079592   0.000727  -0.045499   0.000137
     5  C    0.022807  -0.052511  -0.086282  -0.000708   0.045168  -0.000180
     6  C   -0.075097  -0.036618   0.000785  -0.000004   0.000331  -0.000004
     7  C   -0.101241  -0.081539   0.009710   0.000105  -0.011502   0.000023
     8  N   -0.002708   0.015790   0.000131   0.000000   0.000076   0.000000
     9  O    0.000061  -0.010237  -0.000391  -0.000005   0.000173   0.000000
    10  O   -0.015765   0.003814   0.000222   0.000000  -0.000022   0.000000
    11  H   -0.000024   0.000006   0.000000   0.000000   0.000000   0.000000
    12  H    0.016124   0.034677  -0.002557  -0.000243  -0.001639  -0.000001
    13  C   -0.002006  -0.000698   0.000091   0.000000  -0.000035   0.000000
    14  C    0.000054  -0.002006  -0.000045   0.000000   0.000006   0.000000
    15  C    0.000006  -0.000035   0.000000   0.000000   0.000000   0.000000
    16  H    0.000000   0.000000   0.000000   0.000000   0.000000   0.000000
    17  C   -0.000045   0.000091   0.000002   0.000000   0.000000   0.000000
    18  H    0.000000   0.000000   0.000000   0.000000   0.000000   0.000000
    19  C    0.006792  -0.037458  -0.002348  -0.000001   0.000850   0.000000
    20  C   -0.000146   0.001043   0.000006   0.000000  -0.000001   0.000000
    21  H    0.000000   0.000000   0.000000   0.000000   0.000000   0.000000
    22  S    0.000546   0.000039  -0.000482   0.000000   0.000012   0.000000
    23  N   -0.000001   0.000065   0.000002   0.000000   0.000000   0.000000
    24  N    0.000000   0.000005   0.000000   0.000000   0.000000   0.000000
    25  C   13.156292  -2.494102  -0.423975  -0.025848   0.604502   0.194959
    26  C   -2.494102  10.592021  -0.600484   0.035359   0.094959  -0.189822
    27  C   -0.423975  -0.600484   6.122857   0.466172  -0.166952  -0.038896
    28  H   -0.025848   0.035359   0.466172   0.613636  -0.100197   0.000673
    29  C    0.604502   0.094959  -0.166952  -0.100197   5.701681   0.349720
    30  H    0.194959  -0.189822  -0.038896   0.000673   0.349720   0.626403
    31  C   -2.354399  -3.339676   0.422282   0.000993  -0.633410   0.067011
    32  H    0.049813  -0.015275   0.002274   0.000000  -0.003986  -0.000006
    33  C   -1.553653   0.552167   0.144785   0.001201  -0.232011  -0.006215
    34  S    0.376364  -0.025475   0.007883  -0.000666   0.014766  -0.000925
    35  N   -0.374612   0.842968  -0.048662   0.006908   0.309425  -0.115368
    36  N   -0.046109   0.350622  -0.014118  -0.109323   0.151224   0.011479
             31         32         33         34         35         36
     1  N   -0.032663   0.000134  -0.204407   0.023685   0.001426   0.005998
     2  C    0.099353  -0.000072  -0.847451   0.035143   0.001662  -0.033504
     3  C   -0.028927  -0.004122   0.109579  -0.193959   0.011964   0.037676
     4  C    0.240320  -0.000035   0.248236  -0.262767   0.015535  -0.008841
     5  C   -0.410000   0.000154   1.201656   0.074608  -0.002971   0.012741
     6  C   -0.013145   0.000018  -0.251333  -0.027537   0.000664   0.006832
     7  C    0.269090   0.000216  -0.952533  -0.035779   0.001492  -0.003480
     8  N    0.000038   0.000002  -0.108747   0.008143   0.000063  -0.000441
     9  O   -0.001264   0.000000   0.031262  -0.001080  -0.000009  -0.000609
    10  O    0.022412  -0.000018  -0.009418  -0.025051   0.000008   0.000068
    11  H    0.000017   0.000000  -0.001910   0.001199   0.000000  -0.000001
    12  H    0.003850   0.000000  -0.055286  -0.007013   0.000081   0.034896
    13  C    0.001043   0.000000  -0.037457   0.000039   0.000005   0.000065
    14  C   -0.000146   0.000000   0.006792   0.000546   0.000000  -0.000001
    15  C   -0.000001   0.000000   0.000850   0.000012   0.000000   0.000000
    16  H    0.000000   0.000000   0.000000   0.000000   0.000000   0.000000
    17  C    0.000006   0.000000  -0.002348  -0.000482   0.000000   0.000002
    18  H    0.000000   0.000000  -0.000001   0.000000   0.000000   0.000000
    19  C   -0.015634   0.000001   0.270411  -0.002203  -0.000054  -0.000976
    20  C    0.000089   0.000000  -0.015634  -0.000769   0.000000  -0.000025
    21  H    0.000000   0.000000   0.000001   0.000000   0.000000   0.000000
    22  S   -0.000769   0.000000  -0.002204   0.000152   0.000005   0.000299
    23  N   -0.000025   0.000000  -0.000976   0.000299   0.000000   0.000003
    24  N    0.000000   0.000000  -0.000054   0.000005   0.000000   0.000000
    25  C   -2.354399   0.049813  -1.553653   0.376364  -0.374612  -0.046109
    26  C   -3.339676  -0.015275   0.552167  -0.025475   0.842968   0.350622
    27  C    0.422282   0.002274   0.144785   0.007883  -0.048662  -0.014118
    28  H    0.000993   0.000000   0.001201  -0.000666   0.006908  -0.109323
    29  C   -0.633410  -0.003986  -0.232011   0.014766   0.309425   0.151224
    30  H    0.067011  -0.000006  -0.006215  -0.000925  -0.115368   0.011479
    31  C   12.900289   0.284358  -0.022701  -0.455227  -0.696320  -0.044051
    32  H    0.284358   0.528211   0.017277  -0.002027  -0.003870  -0.000319
    33  C   -0.022701   0.017277   8.252335   0.093269   0.102238  -0.170883
    34  S   -0.455227  -0.002027   0.093269  16.091323   0.043927   0.022902
    35  N   -0.696320  -0.003870   0.102238   0.043927   7.220623  -0.039722
    36  N   -0.044051  -0.000319  -0.170883   0.022902  -0.039722   7.068539
 Mulliken atomic charges:
              1
     1  N   -0.462989
     2  C    0.811597
     3  C    0.452090
     4  C   -0.453119
     5  C   -0.453114
     6  C    0.452092
     7  C    0.811598
     8  N   -0.462989
     9  O   -0.569409
    10  O   -0.569409
    11  H    0.334928
    12  H    0.334928
    13  C   -0.081805
    14  C    0.105929
    15  C   -0.083232
    16  H    0.104367
    17  C    0.168676
    18  H    0.106973
    19  C   -0.556835
    20  C   -0.262795
    21  H    0.147270
    22  S    0.246695
    23  N   -0.230942
    24  N   -0.277404
    25  C    0.105929
    26  C   -0.081804
    27  C    0.168676
    28  H    0.106973
    29  C   -0.083232
    30  H    0.104367
    31  C   -0.262793
    32  H    0.147270
    33  C   -0.556836
    34  S    0.246696
    35  N   -0.277404
    36  N   -0.230943
 Sum of Mulliken atomic charges =  -1.00000
 Mulliken charges with hydrogens summed into heavy atoms:
              1
     1  N   -0.128061
     2  C    0.811597
     3  C    0.452090
     4  C   -0.453119
     5  C   -0.453114
     6  C    0.452092
     7  C    0.811598
     8  N   -0.128061
     9  O   -0.569409
    10  O   -0.569409
    13  C   -0.081805
    14  C    0.105929
    15  C    0.021135
    17  C    0.275649
    19  C   -0.556835
    20  C   -0.115525
    22  S    0.246695
    23  N   -0.230942
    24  N   -0.277404
    25  C    0.105929
    26  C   -0.081804
    27  C    0.275649
    29  C    0.021134
    31  C   -0.115523
    33  C   -0.556836
    34  S    0.246696
    35  N   -0.277404
    36  N   -0.230943
 Sum of Mulliken charges with hydrogens summed into heavy atoms =  -1.00000
          Atomic-Atomic Spin Densities.
              1          2          3          4          5          6
     1  N    0.003465   0.007056  -0.010261   0.004535   0.001714   0.000936
     2  C    0.007056  -0.024229   0.023267   0.010602   0.026191   0.011595
     3  C   -0.010261   0.023267   0.105175  -0.028404  -0.020635   0.006487
     4  C    0.004535   0.010602  -0.028404  -0.096216   0.046670  -0.020635
     5  C    0.001714   0.026191  -0.020635   0.046670  -0.096216  -0.028404
     6  C    0.000936   0.011595   0.006487  -0.020635  -0.028404   0.105176
     7  C   -0.001593  -0.008427   0.011595   0.026191   0.010601   0.023267
     8  N    0.000006  -0.001593   0.000936   0.001714   0.004535  -0.010261
     9  O   -0.001168  -0.006464   0.000160  -0.003186   0.003347   0.000341
    10  O   -0.000010  -0.000107   0.000341   0.003347  -0.003186   0.000160
    11  H   -0.000001  -0.000069  -0.000052   0.000640  -0.000447   0.000023
    12  H    0.000290  -0.000453   0.000023  -0.000447   0.000640  -0.000052
    13  C    0.000189   0.004148   0.000702   0.003473  -0.005943  -0.007455
    14  C    0.000056  -0.004642  -0.000559   0.005815  -0.008224   0.007792
    15  C    0.000001   0.000157  -0.000090  -0.000628  -0.000152  -0.001033
    16  H    0.000000   0.000000   0.000000   0.000000  -0.000003   0.000034
    17  C   -0.000010   0.000049   0.000103   0.000378  -0.000021   0.001202
    18  H    0.000000  -0.000005   0.000000   0.000023  -0.000035  -0.000289
    19  C   -0.000377  -0.006553  -0.006464  -0.005425   0.007328   0.040044
    20  C   -0.000082   0.004762   0.000131  -0.003962   0.002891   0.000893
    21  H    0.000000  -0.000086   0.000000   0.000005   0.000062   0.000295
    22  S    0.000336  -0.008532   0.000725   0.008281   0.000950  -0.012738
    23  N   -0.000009  -0.000052   0.000095   0.000026   0.000271  -0.001113
    24  N    0.000000  -0.000061   0.000038   0.000237   0.000256   0.000745
    25  C   -0.001614  -0.004021   0.007792  -0.008224   0.005815  -0.000559
    26  C    0.002258  -0.000075  -0.007454  -0.005943   0.003473   0.000702
    27  C   -0.000524  -0.000437   0.001202  -0.000021   0.000378   0.000103
    28  H    0.000074  -0.000008  -0.000289  -0.000035   0.000023   0.000000
    29  C   -0.000268   0.000257  -0.001033  -0.000152  -0.000628  -0.000090
    30  H   -0.000002   0.000000   0.000034  -0.000003   0.000000   0.000000
    31  C   -0.000733   0.001776   0.000893   0.002891  -0.003962   0.000131
    32  H   -0.000006  -0.000002   0.000295   0.000062   0.000005   0.000000
    33  C   -0.007077  -0.004997   0.040044   0.007328  -0.005425  -0.006464
    34  S    0.002066  -0.004634  -0.012738   0.000950   0.008281   0.000725
    35  N    0.000103  -0.000073   0.000745   0.000256   0.000237   0.000038
    36  N    0.001918   0.000467  -0.001113   0.000271   0.000026   0.000095
              7          8          9         10         11         12
     1  N   -0.001593   0.000006  -0.001168  -0.000010  -0.000001   0.000290
     2  C   -0.008427  -0.001593  -0.006464  -0.000107  -0.000069  -0.000453
     3  C    0.011595   0.000936   0.000160   0.000341  -0.000052   0.000023
     4  C    0.026191   0.001714  -0.003186   0.003347   0.000640  -0.000447
     5  C    0.010601   0.004535   0.003347  -0.003186  -0.000447   0.000640
     6  C    0.023267  -0.010261   0.000341   0.000160   0.000023  -0.000052
     7  C   -0.024228   0.007056  -0.000107  -0.006464  -0.000453  -0.000069
     8  N    0.007056   0.003465  -0.000010  -0.001168   0.000290  -0.000001
     9  O   -0.000107  -0.000010   0.026752   0.000013   0.000000  -0.000043
    10  O   -0.006464  -0.001168   0.000013   0.026752  -0.000043   0.000000
    11  H   -0.000453   0.000290   0.000000  -0.000043  -0.000355   0.000000
    12  H   -0.000069  -0.000001  -0.000043   0.000000   0.000000  -0.000355
    13  C   -0.000075   0.002258  -0.000340  -0.000478  -0.000257  -0.000004
    14  C   -0.004021  -0.001614  -0.000319  -0.000011  -0.000130   0.000000
[...]
 4360,0.00092956,-0.00087237,-0.00000284,0.00000039,-0.00001142,-0.0001
 6704,-0.00047078,-0.00005634,-0.00007289,-0.00038746,0.00015814,0.0000
 9065,0.00065473,-0.00030978,-0.09154257,0.01550972,-0.30629385,-0.0264
 8407,-0.03125462,-0.03419740,-0.00555651,-0.00620793,-0.00980967,0.000
 25944,-0.00005835,-0.00005916,0.00866537,0.00504241,0.02479360,-0.0000
 9259,0.00037694,-0.00007125,0.22330096,0.05664321,0.60217074,0.0002741
 3,-0.00014482,-0.00007161,0.00003664,0.00007353,-0.00002003,0.00156884
 ,-0.00039367,-0.00059103,-0.00023661,0.00005067,0.00003992,0.00005164,
 0.00004960,0.00000605,0.00000814,-0.00006135,0.00002442,0.00015248,-0.
 00001660,0.00001205,-0.00004671,-0.00001017,0.00002054,-0.00009701,0.0
 0000358,0.00002527,-0.00011180,-0.00002907,0.00001464,0.00000442,-0.00
 000121,-0.00000303,0.00001721,0.00004133,-0.00002188,0.00000261,-0.000
 01405,0.00002205,0.00000275,-0.00000290,0.00001662,0.00000970,0.000010
 43,0.00001682,0.00000070,-0.00000062,0.00000026,-0.00000918,-0.0000242
 3,0.00000469,0.00000133,-0.00000073,-0.00000014,0.00001182,0.00003771,
 0.00000469,-0.00000348,0.00000536,-0.00000295,0.00000096,-0.00000098,-
 0.00000015,-0.00000257,0.00000275,-0.00002336,-0.00000394,0.00001397,-
 0.00001871,-0.00000381,0.00000285,-0.00001422,-0.00065476,-0.00601554,
 -0.00194623,0.00336052,-0.00007173,-0.00260424,0.00022155,0.00002247,0
 .00021730,-0.00000393,0.00002663,-0.00001862,-0.00055512,0.00009954,-0
 .00008319,0.00020021,-0.00005492,-0.00010579,-0.08318238,-0.10014673,-
 0.09476782,0.08488539,-0.00022577,-0.00044365,0.00008663,0.00004404,0.
 00025504,-0.00008665,-0.00090073,0.00043271,-0.00109877,0.00006738,0.0
 0018117,-0.00020515,0.00003626,0.00015166,-0.00000846,-0.00003048,-0.0
 0015400,0.00006659,0.00006672,0.00015998,0.00016974,-0.00000026,-0.000
 09414,0.00003723,-0.00006007,-0.00015299,-0.00011710,-0.00004328,-0.00
 023988,-0.00000027,-0.00000731,-0.00000698,-0.00000819,-0.00002155,-0.
 00008744,0.00002884,0.00001833,-0.00002950,0.00007292,0.00001265,-0.00
 002116,0.00004561,0.00006280,0.00006614,0.00010836,0.00000029,-0.00000
 366,0.00000476,-0.00004228,-0.00015662,0.00001992,0.00000039,-0.000003
 15,0.00000528,0.00004602,0.00009624,0.00003818,0.00000424,0.00001180,0
 .00000038,-0.00000099,-0.00000312,0.00000125,-0.00003058,0.00003322,-0
 .00010539,-0.00000030,0.00009330,-0.00008205,-0.00003264,-0.00000375,-
 0.00008133,0.00370734,0.00833924,0.00435462,-0.00068737,0.00021104,0.0
 0175415,0.00005182,0.00026505,0.00001977,-0.00001326,-0.00001894,-0.00
 002313,-0.00010650,-0.00033033,-0.00047340,-0.00007395,0.00003760,-0.0
 0000575,-0.10116010,-0.18305395,-0.12177051,0.10558840,0.18812400,-0.0
 0000414,0.00029254,0.00008652,0.00000649,-0.00000598,0.00004219,-0.000
 15949,0.00023383,0.00130167,0.00002402,-0.00024339,0.00000473,0.000018
 75,0.00003311,0.00005248,-0.00000213,-0.00001823,0.00002777,-0.0000585
 6,-0.00005120,0.00004460,0.00001202,0.00000986,-0.00002768,0.00007753,
 0.00004596,0.00005644,0.00002482,0.00003313,-0.00007154,0.00000217,0.0
 0000739,0.00000511,0.00003187,0.00019258,-0.00007004,-0.00000579,-0.00
 001394,-0.00000366,0.00000630,0.00000653,0.00000400,-0.00002638,-0.000
 02778,-0.00004568,-0.00000061,0.00000236,-0.00000256,0.00001925,0.0000
 6399,-0.00000755,-0.00000121,0.00000210,-0.00000320,-0.00000202,0.0000
 1840,-0.00002143,-0.00000377,0.00000200,-0.00001223,-0.00000019,0.0000
 0126,-0.00000009,0.00000525,-0.00001638,0.00003120,-0.00000629,-0.0000
 4196,0.00001756,0.00001490,0.00001197,0.00003058,-0.01025774,-0.021186
 88,-0.00678996,-0.00207501,0.00338020,-0.00396812,0.00019266,-0.000060
 29,0.00068896,0.00001518,0.00008132,-0.00003462,0.00009193,0.00006769,
 -0.00037422,-0.00009034,0.00004398,-0.00001574,-0.09389162,-0.11909441
 ,-0.15936672,0.09803690,0.12794087,0.16138881,-0.00674864,-0.02228942,
 -0.01166647,0.00028098,0.00699635,-0.00783250,-0.08208647,-0.07326823,
 -0.03202109,0.00011252,-0.01525197,0.00754677,0.00661516,0.00111383,0.
 00479594,0.00180076,0.00004192,0.00110333,-0.00133601,0.00298023,-0.00
 101490,-0.00063222,-0.00098112,-0.00185695,0.00121429,-0.00103488,0.00
 288434,0.00059017,-0.00057764,0.00059868,0.00011223,0.00055297,-0.0000
 9506,-0.00055090,0.00029664,0.00057239,-0.00046703,0.00019180,-0.00060
 442,-0.00034044,0.00045977,-0.00164399,-0.00161476,-0.00153730,-0.0029
 5992,-0.00003031,0.00002551,-0.00007601,0.00111692,0.00375199,-0.00035
 764,-0.00000690,0.00007667,-0.00008127,-0.00124766,0.00009227,-0.00126
 904,-0.00015552,-0.00080472,0.00022354,0.00001242,0.00004682,-0.000001
 22,0.00070806,-0.00055289,0.00222834,-0.00032186,-0.00245669,0.0013549
 0,0.00089694,-0.00008674,0.00242961,0.00462439,-0.00885677,0.00101473,
 -0.06542185,-0.01231454,-0.01672602,0.00733982,0.00182940,-0.00630542,
 0.00072174,0.00028217,-0.00048574,-0.00095775,-0.00090269,-0.00337857,
 -0.00105991,0.00038051,0.00047924,-0.00060133,-0.01413070,-0.00935009,
 -0.00031289,0.00028042,0.00070061,0.18612279,-0.01600167,-0.01886284,-
 0.02163845,-0.00099415,0.01384153,-0.01359867,-0.07843193,-0.24686152,
 -0.03387146,-0.01716585,-0.05866491,0.00712821,0.00846794,0.00787204,0
 .01921731,-0.00045628,-0.00529502,0.00455881,-0.00157921,0.00283471,-0
 .00821388,-0.00206243,-0.00138762,-0.00388991,0.00335805,0.00091248,0.
 00837788,0.00172535,0.00167376,0.00353747,0.00026750,0.00106425,-0.000
 23979,0.00036476,-0.00051972,0.00063018,-0.00014678,-0.00088098,0.0001
 1016,-0.00108325,0.00109175,-0.00365353,-0.00339114,-0.00302954,-0.006
 31529,-0.00004669,0.00002335,-0.00015166,0.00229068,0.00743622,-0.0003
 0642,-0.00001248,0.00015169,-0.00016568,0.00009263,0.00287291,-0.00292
 034,-0.00054445,-0.00251149,0.00072471,0.00003833,0.00009677,0.0000191
 7,0.00129739,-0.00071706,0.00406330,-0.00099221,-0.00496427,0.00160793
 ,0.00194863,-0.00024781,0.00533777,-0.01496537,-0.03637772,-0.00217431
 ,-0.02400365,-0.19331749,0.05508640,0.00158462,0.02968127,-0.01338805,
 -0.00004288,0.00070760,-0.00002176,-0.00769439,-0.01168424,-0.00970608
 ,0.00036076,-0.00008983,-0.00014455,-0.01621205,-0.02457535,-0.0151788
 1,0.00029407,-0.00384551,0.00348458,0.15219062,0.61758824,-0.01702007,
 -0.03801428,-0.00710939,-0.00099703,0.00733970,-0.00792573,-0.02768291
 ,-0.02050631,-0.10096343,0.00921052,0.01216188,0.01595159,-0.00148331,
 -0.00004759,0.00056873,0.00152280,0.00585808,0.00035524,0.00288564,0.0
 0377139,0.00241152,-0.00093243,-0.00104802,-0.00115126,-0.00086186,-0.
 00310592,0.00085302,-0.00136480,-0.00247886,-0.00090291,0.00015123,0.0
 0051498,-0.00007776,0.00051248,0.00050388,0.00003384,-0.00031722,0.001
 00658,-0.00199511,-0.00032815,0.00039083,-0.00105295,-0.00137027,-0.00
 143599,-0.00236513,-0.00001424,0.00003892,-0.00007954,0.00088903,0.003
 52651,-0.00064638,-0.00000440,0.00007093,-0.00007412,-0.00127007,-0.00
 292421,-0.00163364,0.00000590,0.00005542,-0.00001741,0.00000485,0.0000
 3936,-0.00002099,0.00064565,-0.00080926,0.00242889,0.00010326,-0.00224
 358,0.00215427,0.00068591,-0.00001310,0.00181742,0.00621884,0.01391888
 ,0.01157863,-0.00672578,0.08572604,-0.14580333,-0.00608886,-0.01272926
 ,0.00402180,-0.00020762,0.00083368,-0.00044391,0.00241678,0.00813954,0
 .00001031,0.00049695,-0.00009073,0.00001724,-0.00749449,-0.00972697,-0
 .00397186,0.00068353,0.00345916,-0.00180240,0.10451414,-0.04557254,0.4
 0994853,0.00173443,-0.00131467,0.00083236,0.00139358,-0.00040797,0.001
 45490,-0.00783736,-0.01105057,-0.00908710,-0.00000138,0.00480163,-0.00
 220876,-0.00103268,0.00162412,-0.00265738,-0.00054966,-0.00199746,0.00
 017311,0.00050341,-0.00191894,0.00231739,0.00076871,0.00037944,0.00045
 830,-0.00105161,-0.00065483,-0.00170419,-0.00153891,-0.00081449,-0.000
 54170,-0.00003502,-0.00024206,0.00006712,-0.00029594,-0.00036887,0.000
 15029,0.00022527,-0.00048166,0.00098083,0.00034361,-0.00030050,0.00104
 481,0.00091966,0.00089101,0.00164582,0.00001047,-0.00000867,0.00004013
 ,-0.00060981,-0.00221839,0.00029202,0.00000295,-0.00004063,0.00003542,
 0.00070761,0.00129565,0.00064781,0.00004771,0.00037851,-0.00016577,-0.
 00000321,-0.00003165,0.00000446,-0.00054247,0.00037222,-0.00155646,0.0
 0002540,0.00144095,-0.00113567,-0.00047914,0.00013959,-0.00134783,0.00
 562254,-0.00299219,0.00228393,-0.00209447,0.00384311,-0.01670157,-0.00
 093169,-0.00219113,-0.00084683,-0.00044035,0.00018664,0.00021840,0.001
 31444,-0.00034171,0.00251649,-0.00050596,0.00020895,0.00019014,-0.0318
 3438,-0.03459444,0.00302332,-0.00309102,-0.00749197,0.00631628,-0.0460
 3142,-0.00559745,-0.04818059,0.07654970,-0.00240080,-0.00654480,0.0008
 8685,-0.00038066,0.00450066,-0.00402940,-0.00859001,0.00398399,-0.0266
 3001,-0.00028587,-0.00263212,0.00090989,0.00110982,-0.00030327,0.00270
 304,0.00060863,0.00145748,0.00037949,-0.00059005,-0.00131486,-0.000190
 68,-0.00028848,-0.00024277,-0.00014517,0.00020915,-0.00120859,0.001424
 86,-0.00018313,-0.00192679,0.00026595,0.00009711,0.00027833,0.00003206
 ,0.00018417,0.00035787,-0.00002140,-0.00035666,-0.00006795,-0.00087019
 ,0.00011332,0.00026008,0.00010245,-0.00108444,-0.00119907,-0.00182264,
 -0.00001304,0.00008037,-0.00010336,0.00070577,0.00274306,-0.00049121,-
 0.00001973,0.00005957,-0.00010066,-0.00055481,-0.00072015,-0.00080472,
 -0.00006162,0.00035802,-0.00047003,0.00000338,0.00003412,-0.00001510,0
 .00037219,-0.00075563,0.00155727,-0.00008654,-0.00175655,0.00126448,0.
 00059630,0.00037559,0.00124056,0.00237028,-0.03190935,0.03838035,-0.00
 127406,0.00094781,-0.00160262,-0.00078661,0.00108715,-0.00291365,0.000
 17922,-0.00006062,0.00002262,0.00049104,-0.00216537,0.00354542,0.00024
 511,0.00010259,0.00000592,-0.02433464,-0.16233761,0.05631690,0.0003809
 1,-0.01035256,0.00722582,-0.02363930,-0.05908445,-0.03401270,0.0580774
 3,0.26293335,0.00175852,0.00372648,0.00327123,0.00145021,-0.00406560,0
 .00823601,-0.01115478,-0.03303596,-0.00181369,0.00211318,0.01427439,-0
 .00734527,-0.00220777,0.00406545,-0.00982841,-0.00205076,-0.00647273,0
 .00016673,0.00116551,-0.00370984,0.00646752,0.00103558,0.00161856,0.00
 180482,-0.00246032,-0.00085072,-0.00587990,-0.00106642,-0.00141156,-0.
 00270236,-0.00022326,-0.00085835,0.00016911,-0.00032275,-0.00147602,0.
 00018561,0.00086692,-0.00121018,0.00332670,0.00070438,-0.00098272,0.00
 271359,0.00333246,0.00337520,0.00588282,0.00004396,-0.00009208,0.00019
 164,-0.00220599,-0.00817133,0.00118792,0.00001617,-0.00015451,0.000179
 28,0.00222532,0.00406129,0.00242462,0.00020015,0.00068364,-0.00005391,
 -0.00002392,-0.00010653,0.00003047,-0.00155196,0.00155568,-0.00548608,
 0.00017010,0.00527127,-0.00407622,-0.00173559,0.00004391,-0.00461466,-
 0.00231647,0.02432351,-0.02110706,-0.01235339,0.01185239,-0.03954475,-
 0.00204006,-0.00658425,0.00036318,0.00022608,0.00004261,-0.00002811,0.
 00179791,0.00134832,0.00404416,0.00015918,-0.00009102,-0.00014985,-0.0
 0578688,0.02927542,-0.06183112,-0.00039873,-0.01345121,0.00735722,-0.0
 3272056,0.01341157,-0.12344773,0.06718308,-0.04457252,0.24666210,0.000
 05603,-0.00014374,-0.00016321,0.00051389,-0.00026962,0.00144949,0.0008
 2287,-0.00255964,0.00178637,-0.00012609,0.00120564,-0.00191438,-0.0001
 8642,0.00218985,-0.00162757,-0.00091537,-0.00301266,0.00032124,-0.0003
 9454,-0.00174370,0.00023176,0.00054518,0.00076202,0.00065450,-0.000574
 51,-0.00030484,-0.00130705,0.00006114,0.00065158,0.00000918,-0.0000726
 4,-0.00025528,0.00002871,-0.00044224,-0.00051780,0.00022540,0.00035054
 ,-0.00056833,0.00136318,0.00013982,-0.00028674,0.00061708,0.00096610,0
 .00103299,0.00166330,0.00001169,-0.00003918,0.00006537,-0.00062809,-0.
 00247802,0.00045479,0.00000526,-0.00004704,0.00005923,0.00089642,0.001
 94742,0.00068663,0.00002321,-0.00005851,0.00009431,-0.00000382,-0.0000
 3312,0.00001471,-0.00047826,0.00059845,-0.00173721,-0.00005416,0.00157
 135,-0.00147710,-0.00047863,-0.00002986,-0.00124535,-0.06833962,-0.030
 92905,-0.00493331,0.01561512,-0.01209310,0.01340980,0.00630777,-0.0323
 2055,-0.03033984,0.00265054,-0.00371400,-0.00242019,-0.10086971,-0.018
 74580,-0.11073687,-0.00480682,0.00573318,-0.00021218,0.00408352,0.0145
 0912,-0.00665488,-0.00258535,0.00071514,0.00208653,-0.00085118,-0.0008
 8706,-0.00224097,0.00373827,-0.00039074,-0.00514697,0.15573857,-0.0001
 7952,0.00022402,-0.00052275,0.00019325,-0.00001457,0.00055937,0.000585
 22,0.00080667,0.00167963,0.00020910,-0.00081999,0.00142607,-0.00026999
 ,-0.00135179,0.00022016,-0.00016048,0.00053522,-0.00092086,-0.00088098
 ,-0.00009826,-0.00215471,0.00017493,0.00045872,0.00010441,-0.00016880,
 0.00004480,-0.00045950,0.00086968,0.00072755,0.00152281,-0.00002142,0.
 00001028,-0.00006495,0.00007383,-0.00026506,0.00011540,0.00015591,0.00
 042712,0.00005529,-0.00044724,0.00003847,-0.00118754,0.00003090,0.0001
 8727,-0.00008300,0.00000090,-0.00006357,0.00005513,-0.00000545,-0.0002
 7757,0.00022856,0.00001540,-0.00001516,0.00005177,-0.00008111,-0.00023
 719,-0.00002242,0.00002519,-0.00070155,0.00065180,0.00000255,-0.000003
 86,0.00001092,0.00013830,0.00037606,0.00004456,-0.00000640,0.00018565,
 -0.00017570,-0.00002649,-0.00047671,0.00033779,-0.04259210,-0.24185957
 ,0.04651454,-0.01416859,-0.04213666,0.01110991,-0.00870702,0.02587741,
 -0.02081771,-0.00387185,-0.00425340,-0.00246256,-0.02537757,-0.1143929
 8,-0.01411639,0.01416426,0.00699552,0.02565264,0.01351063,-0.00781722,
 0.04379123,0.00088354,-0.00010920,-0.00066964,-0.00454324,-0.00582038,
 -0.00670084,0.00006117,0.00908868,-0.00263306,0.06299056,0.37640414,-0
 .00013685,-0.00042814,0.00018266,0.00106139,-0.00065516,0.00338462,-0.
 00089071,-0.00659853,0.00423674,-0.00105694,0.00406629,-0.00604573,0.0
 0047690,0.00667433,-0.00475645,-0.00212154,-0.00843060,0.00158083,-0.0
 0051662,-0.00442877,0.00253205,0.00116221,0.00165143,0.00167914,-0.001
 43640,-0.00081961,-0.00302265,-0.00017670,0.00095800,-0.00142947,-0.00
 017288,-0.00068044,0.00013120,-0.00028447,-0.00144543,0.00013760,0.000
 74473,-0.00184480,0.00355448,0.00075131,-0.00079226,0.00263434,0.00252
 074,0.00255531,0.00444337,0.00003190,-0.00004852,0.00012377,-0.0016606
 5,-0.00627670,0.00100689,0.00000540,-0.00011277,0.00010965,0.00242623,
 0.00532956,0.00182273,0.00002405,0.00044751,-0.00030068,-0.00001413,-0
 .00008190,0.00003086,-0.00134630,0.00124465,-0.00461641,-0.00012755,0.
 00397313,-0.00373971,-0.00124665,0.00033094,-0.00355885,0.00507607,0.0
 7709728,-0.10909594,0.01519997,0.01658786,0.04019201,-0.05054065,-0.08
 285911,-0.03358955,-0.00228281,-0.00204003,0.00051995,-0.10510264,0.00
 338362,-0.33188902,-0.00741325,0.00345089,-0.02905555,-0.00579605,0.04
 641602,-0.05301423,0.00193966,-0.00110606,0.00243227,0.00086666,0.0028
 9478,0.00012822,-0.00553109,-0.00380619,-0.00545320,0.15325842,-0.0901
 1816,0.55700546,0.00235625,-0.00139368,0.00127294,0.00080922,-0.000693
 74,0.00071523,-0.00345400,-0.00670187,-0.00115547,0.00100472,0.0022302
 7,-0.00025790,-0.00136618,-0.00147252,-0.00005660,0.00049187,0.0015513
 9,-0.00055720,0.00018362,0.00031089,0.00030003,-0.00000512,-0.00026919
 ,0.00018608,0.00018353,-0.00007264,-0.00012432,-0.00009583,-0.00023726
 ,-0.00020077,0.00001995,-0.00001414,0.00000008,-0.00387020,0.00135608,
 0.00061851,-0.00008769,0.00030591,-0.00047990,0.00001873,-0.00001732,0
 .00010339,0.00005037,-0.00001165,0.00010993,-0.00000082,0.00000318,0.0
 0000105,-0.00002830,0.00002023,-0.00011923,-0.00000488,0.00000059,0.00
 000819,-0.00032198,-0.00099390,0.00010455,0.00007810,0.00025956,-0.000
 07118,-0.00000394,-0.00000043,-0.00000637,0.00002479,-0.00008503,0.000
 16964,0.00011285,0.00000380,0.00032850,-0.00005431,-0.00000799,-0.0001
 2693,0.00465037,-0.01180787,-0.02641341,-0.09939851,-0.03064918,-0.087
 10470,-0.06684487,-0.03912072,-0.00606367,-0.00313396,0.01324605,-0.00
 112280,0.02161350,-0.01532471,0.00484036,0.00259839,-0.00402864,-0.002
 37210,0.00000173,-0.00456655,0.00125663,0.00008951,0.00022717,-0.00109
 815,-0.00149416,0.01803003,-0.00636245,0.00499875,-0.00042261,0.001317
 88,-0.01071850,0.00742293,0.00230922,0.15159702,-0.00366887,-0.0107873
 0,0.00162225,-0.00019579,0.00487163,-0.00403367,0.00140911,0.01434225,
 -0.00922981,-0.00066594,-0.00977315,0.00696015,0.00144562,-0.00603834,
 0.00822381,0.00263331,0.00813200,0.00012687,0.00059046,0.00481029,-0.0
 0260157,-0.00157497,-0.00291692,-0.00162272,0.00187207,0.00030483,0.00
 484845,-0.00007038,-0.00106804,0.00077624,0.00023863,0.00090085,-0.000
 12620,0.00255330,0.00263401,0.00066622,-0.00099112,0.00131377,-0.00373
 272,-0.00039063,0.00085104,-0.00177546,-0.00307273,-0.00324609,-0.0052
 9269,-0.00004028,0.00011268,-0.00020310,0.00199745,0.00778206,-0.00139
 356,-0.00001609,0.00014913,-0.00017816,-0.00245810,-0.00496601,-0.0022
 3706,-0.00011314,0.00013070,-0.00038114,0.00001425,0.00009352,-0.00004
 107,0.00144165,-0.00175547,0.00527116,0.00000348,-0.00504238,0.0043093
 6,0.00156893,0.00018223,0.00397219,-0.00688026,0.03008512,-0.02792584,
 -0.02413352,-0.10350492,-0.02326461,-0.03093219,-0.27843714,0.11248932
 ,0.00431585,-0.00486585,0.00944504,-0.03825181,-0.07260959,-0.01728447
 ,-0.00395709,-0.00446161,-0.00248146,-0.00551657,-0.01058015,-0.004587
 98,-0.00059803,0.00065234,-0.00175139,0.01163896,-0.00911086,0.0341044
 3,0.00135984,-0.00406621,0.01100049,0.01752103,-0.00167288,0.03551158,
 0.07292356,0.45755446,0.00321589,0.00756838,0.00427406,0.00029151,-0.0
 0534052,0.00609053,-0.00809574,-0.03058793,0.00406871,0.00222763,0.014
 54929,-0.00626301,-0.00256479,0.00055962,-0.00805358,-0.00147943,-0.00
 271561,-0.00137724,0.00006573,-0.00332745,0.00298835,0.00130384,0.0018
 0365,0.00188790,-0.00179117,-0.00023486,-0.00422526,-0.00034615,0.0003
 3922,-0.00113665,-0.00021625,-0.00078723,0.00013353,-0.00046444,-0.002
 58219,-0.00344947,0.00062928,-0.00032799,0.00192703,0.00042231,-0.0007
 8903,0.00178317,0.00273089,0.00275914,0.00483094,0.00003842,-0.0000895
 2,0.00017427,-0.00181148,-0.00659742,0.00088985,0.00002211,-0.00013296
 ,0.00016497,0.00135703,0.00160878,0.00214981,0.00024804,0.00058847,0.0
 0015627,-0.00001870,-0.00008207,0.00001698,-0.00113819,0.00126736,-0.0
 0407644,0.00032830,0.00431251,-0.00283789,-0.00147603,-0.00017649,-0.0
 0373856,-0.03063677,-0.04093587,-0.02699054,-0.09264226,-0.04033137,-0
 .26554932,-0.01305782,0.09099182,-0.16401837,0.00652256,0.03297157,-0.
 01805288,0.02442423,0.04297469,0.05225583,-0.00243023,-0.00266637,0.00
 069777,0.00208516,-0.00209305,0.00824742,-0.00039369,0.00040915,-0.000
 95467,-0.00086634,0.05096099,-0.05079430,-0.00021146,0.00633830,-0.001
 30241,-0.00632292,0.00897780,-0.03830140,0.12005094,-0.12918284,0.5083
 8460||-0.00000165,0.00000010,0.00000081,0.00000324,-0.00000128,-0.0000
 0192,-0.00000038,0.00000013,-0.00000016,-0.00000090,0.00000047,-0.0000
 0038,-0.00000086,0.00000010,0.00000106,-0.00000015,0.00000005,0.000000
 36,0.00000320,-0.00000084,-0.00000054,-0.00000002,0.00000045,-0.000000
 17,-0.00000188,0.00000007,0.00000127,-0.00000023,0.00000063,-0.0000004
 6,0.00000068,0.00000036,0.00000025,-0.00000104,-0.00000023,-0.00000012
 ,0.00000072,-0.00000004,0.00000003,0.00000103,0.00000006,0.00000085,0.
 00000131,0.00000018,0.00000082,0.00000174,0.00000005,0.00000098,0.0000
 0141,-0.00000006,0.00000071,0.00000177,0.00000050,0.00000042,0.0000000
 8,0.,0.00000105,0.00000010,0.00000027,0.00000100,0.00000021,-0.0000003
 8,0.00000123,0.00000037,-0.00000090,0.00000064,0.00000138,0.,0.0000006
 6,0.00000138,-0.00000005,0.00000142,-0.00000106,-0.00000005,-0.0000008
 3,-0.00000068,0.00000004,-0.00000005,-0.00000141,0.00000006,-0.0000007
 1,-0.00000177,-0.00000050,-0.00000042,-0.00000134,-0.00000016,-0.00000
 080,-0.00000173,-0.00000005,-0.00000098,-0.00000017,-0.00000025,-0.000
 00097,-0.00000022,0.00000038,-0.00000122,-0.00000030,0.00000007,-0.000
 00097,-0.00000025,0.00000087,-0.00000069,-0.00000134,0.00000003,-0.000
 00143,-0.00000122,-0.00000005,-0.00000072|||@


 Mondays are the potholes in the road of life.
                                -- Tom Wilson
 Job cpu time:  0 days 15 hours 45 minutes 58.0 seconds.
 File lengths (MBytes):  RWF=   2435 Int=      0 D2E=      0 Chk=     29 Scr=      1
 Normal termination of Gaussian 09 at Tue Oct 31 15:02:52 2023.
