 Entering Link 1 = C:\G09W\l1.exe PID=      5240.
  
 Copyright (c) 1988,1990,1992,1993,1995,1998,2003,2009,2010,
            Gaussian, Inc.  All Rights Reserved.
  
 This is part of the Gaussian(R) 09 program.  It is based on
 the Gaussian(R) 03 system (copyright 2003, Gaussian, Inc.),
 the Gaussian(R) 98 system (copyright 1998, Gaussian, Inc.),
 the Gaussian(R) 94 system (copyright 1995, Gaussian, Inc.),
 the Gaussian 92(TM) system (copyright 1992, Gaussian, Inc.),
 the Gaussian 90(TM) system (copyright 1990, Gaussian, Inc.),
 the Gaussian 88(TM) system (copyright 1988, Gaussian, Inc.),
 the Gaussian 86(TM) system (copyright 1986, Carnegie Mellon
 University), and the Gaussian 82(TM) system (copyright 1983,
 Carnegie Mellon University). Gaussian is a federally registered
 trademark of Gaussian, Inc.
  
 This software contains proprietary and confidential information,
 including trade secrets, belonging to Gaussian, Inc.
  
 This software is provided under written license and may be
 used, copied, transmitted, or stored only in accord with that
 written license.
  
 The following legend is applicable only to US Government
 contracts under FAR:
  
                    RESTRICTED RIGHTS LEGEND
  
 Use, reproduction and disclosure by the US Government is
 subject to restrictions as set forth in subparagraphs (a)
 and (c) of the Commercial Computer Software - Restricted
 Rights clause in FAR 52.227-19.
  
 Gaussian, Inc.
 340 Quinnipiac St., Bldg. 40, Wallingford CT 06492
  
  
 ---------------------------------------------------------------
 Warning -- This program may not be used in any manner that
 competes with the business of Gaussian, Inc. or will provide
 assistance to any competitor of Gaussian, Inc.  The licensee
 of this program is prohibited from giving any competitor of
 Gaussian, Inc. access to this program.  By using this program,
 the user acknowledges that Gaussian, Inc. is engaged in the
 business of creating and licensing software in the field of
 computational chemistry and represents and warrants to the
 licensee that it is not a competitor of Gaussian, Inc. and that
 it will not use this program in any manner prohibited above.
 ---------------------------------------------------------------
  

 Cite this work as:
 Gaussian 09, Revision B.01,
 M. J. Frisch, G. W. Trucks, H. B. Schlegel, G. E. Scuseria, 
 M. A. Robb, J. R. Cheeseman, G. Scalmani, V. Barone, B. Mennucci, 
 G. A. Petersson, H. Nakatsuji, M. Caricato, X. Li, H. P. Hratchian, 
 A. F. Izmaylov, J. Bloino, G. Zheng, J. L. Sonnenberg, M. Hada, 
 M. Ehara, K. Toyota, R. Fukuda, J. Hasegawa, M. Ishida, T. Nakajima, 
 Y. Honda, O. Kitao, H. Nakai, T. Vreven, J. A. Montgomery, Jr., 
 J. E. Peralta, F. Ogliaro, M. Bearpark, J. J. Heyd, E. Brothers, 
 K. N. Kudin, V. N. Staroverov, T. Keith, R. Kobayashi, J. Normand, 
 K. Raghavachari, A. Rendell, J. C. Burant, S. S. Iyengar, J. Tomasi, 
 M. Cossi, N. Rega, J. M. Millam, M. Klene, J. E. Knox, J. B. Cross, 
 V. Bakken, C. Adamo, J. Jaramillo, R. Gomperts, R. E. Stratmann, 
 O. Yazyev, A. J. Austin, R. Cammi, C. Pomelli, J. W. Ochterski, 
 R. L. Martin, K. Morokuma, V. G. Zakrzewski, G. A. Voth, 
 P. Salvador, J. J. Dannenberg, S. Dapprich, A. D. Daniels, 
 O. Farkas, J. B. Foresman, J. V. Ortiz, J. Cioslowski, 
 and D. J. Fox, Gaussian, Inc., Wallingford CT, 2010.
 
 ******************************************
 Gaussian 09:  IA32W-G09RevB.01 12-Aug-2010
                06-Nov-2023 
 ******************************************
 %chk=G:\Meu Drive\POS-DOC-IME\SUBSTITUINTES-DOADORES\DPP-substituido\DPP-SUB-10\
 DPP-SUB-10-OPT-FREQ-CATION.chk
 -----------------------------------------------------------
 # opt=tight freq b3lyp/6-31+g(d,p) nosymm geom=connectivity
 -----------------------------------------------------------
 1/7=10,14=-1,18=20,19=15,26=3,38=1,57=2/1,3;
 2/9=110,12=2,15=1,17=6,18=5,40=1/2;
 3/5=1,6=6,7=111,11=2,16=1,25=1,30=1,71=1,74=-5/1,2,3;
 4//1;
 5/5=2,38=5/2;
 6/7=2,8=2,9=2,10=2,28=1/1;
 7/30=1/1,2,3,16;
 1/7=10,14=-1,18=20,19=15/3(2);
 2/9=110,15=1/2;
 99//99;
 2/9=110,15=1/2;
 3/5=1,6=6,7=111,11=2,16=1,25=1,30=1,71=1,74=-5/1,2,3;
 4/5=5,16=3/1;
 5/5=2,38=5/2;
 7/30=1/1,2,3,16;
 1/7=10,14=-1,18=20,19=15/3(-5);
 2/9=110,15=1/2;
 6/7=2,8=2,9=2,10=2,19=2,28=1/1;
 99/9=1/99;
 -------
 Energy:
 -------
 Symbolic Z-matrix:
 Charge =  1 Multiplicity = 2
 N                     0.61822  -1.41878   2.36773 
 C                     1.07122  -0.07699   2.40408 
 C                     0.04274  -1.75661   1.14727 
 C                     0.10609  -0.62392   0.34188 
 C                     0.72787   0.42066   1.07724 
 C                     0.79121   1.55335   0.27186 
 C                    -0.23727  -0.12627  -0.98495 
 N                     0.21574   1.21552  -0.94861 
 O                     1.61314   0.45348   3.36891 
 O                    -0.7792   -0.65674  -1.94978 
 H                     0.1362    1.87105  -1.71872 
 H                     0.69773  -2.0743    3.13785 
 C                     1.32892   3.95588  -0.37222 
 C                     1.93117   5.13539   0.20184 
 C                     1.56456   6.26146  -1.72465 
 H                     1.63336   7.16949  -2.3203 
 C                     0.96498   5.09047  -2.29888 
 H                     0.58817   5.12505  -3.31871 
 C                     1.31043   2.86131   0.51441 
 C                     2.35968   4.92537   1.50679 
 H                     2.84103   5.63796   2.16191 
 S                     2.03916   3.32741   2.0297 
 N                     0.84292   3.95371  -1.647 
 N                     2.04274   6.3021   -0.50268 
 C                    -1.09726  -5.33864   1.2173 
 C                    -0.495    -4.15913   1.79136 
 C                    -0.1311   -5.29371   3.71803 
 H                     0.24569  -5.32829   4.73787 
 C                    -0.73069  -6.46469   3.1438 
 H                    -0.79951  -7.37272   3.73946 
 C                    -1.52575  -5.12862  -0.08766 
 H                    -2.00709  -5.84121  -0.74278 
 C                    -0.47649  -3.06457   0.90472 
 S                    -1.2052   -3.53067  -0.61057 
 N                    -1.20885  -6.50534   1.92182 
 N                    -0.00902  -4.15695   3.06615 
 

 GradGradGradGradGradGradGradGradGradGradGradGradGradGradGradGradGradGrad
 Berny optimization.
 Initialization pass.
                           ----------------------------
                           !    Initial Parameters    !
                           ! (Angstroms and Degrees)  !
 --------------------------                            --------------------------
 ! Name  Definition              Value          Derivative Info.                !
 --------------------------------------------------------------------------------
 ! R1    R(1,2)                  1.4167         estimate D2E/DX2                !
 ! R2    R(1,3)                  1.391          estimate D2E/DX2                !
 ! R3    R(1,12)                 1.0145         estimate D2E/DX2                !
 ! R4    R(2,5)                  1.4581         estimate D2E/DX2                !
 ! R5    R(2,9)                  1.2272         estimate D2E/DX2                !
 ! R6    R(3,4)                  1.3913         estimate D2E/DX2                !
 ! R7    R(3,33)                 1.428          estimate D2E/DX2                !
 ! R8    R(4,5)                  1.4207         estimate D2E/DX2                !
 ! R9    R(4,7)                  1.4581         estimate D2E/DX2                !
 ! R10   R(5,6)                  1.3913         estimate D2E/DX2                !
 ! R11   R(6,8)                  1.391          estimate D2E/DX2                !
 ! R12   R(6,19)                 1.428          estimate D2E/DX2                !
 ! R13   R(7,8)                  1.4167         estimate D2E/DX2                !
 ! R14   R(7,10)                 1.2272         estimate D2E/DX2                !
 ! R15   R(8,11)                 1.0145         estimate D2E/DX2                !
 ! R16   R(13,14)                1.4434         estimate D2E/DX2                !
 ! R17   R(13,19)                1.4087         estimate D2E/DX2                !
 ! R18   R(13,23)                1.3643         estimate D2E/DX2                !
 ! R19   R(14,20)                1.3895         estimate D2E/DX2                !
 ! R20   R(14,24)                1.3675         estimate D2E/DX2                !
 ! R21   R(15,16)                1.0881         estimate D2E/DX2                !
 ! R22   R(15,17)                1.4354         estimate D2E/DX2                !
 ! R23   R(15,24)                1.3128         estimate D2E/DX2                !
 ! R24   R(17,18)                1.0878         estimate D2E/DX2                !
 ! R25   R(17,23)                1.3161         estimate D2E/DX2                !
 ! R26   R(19,22)                1.7448         estimate D2E/DX2                !
 ! R27   R(20,21)                1.081          estimate D2E/DX2                !
 ! R28   R(20,22)                1.7116         estimate D2E/DX2                !
 ! R29   R(25,26)                1.4434         estimate D2E/DX2                !
 ! R30   R(25,31)                1.3895         estimate D2E/DX2                !
 ! R31   R(25,35)                1.3675         estimate D2E/DX2                !
 ! R32   R(26,33)                1.4087         estimate D2E/DX2                !
 ! R33   R(26,36)                1.3643         estimate D2E/DX2                !
 ! R34   R(27,28)                1.0878         estimate D2E/DX2                !
 ! R35   R(27,29)                1.4354         estimate D2E/DX2                !
 ! R36   R(27,36)                1.3161         estimate D2E/DX2                !
 ! R37   R(29,30)                1.0881         estimate D2E/DX2                !
 ! R38   R(29,35)                1.3128         estimate D2E/DX2                !
 ! R39   R(31,32)                1.081          estimate D2E/DX2                !
 ! R40   R(31,34)                1.7116         estimate D2E/DX2                !
 ! R41   R(33,34)                1.7448         estimate D2E/DX2                !
 ! A1    A(2,1,3)              112.6338         estimate D2E/DX2                !
 ! A2    A(2,1,12)             124.5756         estimate D2E/DX2                !
 ! A3    A(3,1,12)             122.7906         estimate D2E/DX2                !
 ! A4    A(1,2,5)              102.9804         estimate D2E/DX2                !
 ! A5    A(1,2,9)              124.8061         estimate D2E/DX2                !
 ! A6    A(5,2,9)              132.2135         estimate D2E/DX2                !
 ! A7    A(1,3,4)              106.9387         estimate D2E/DX2                !
 ! A8    A(1,3,33)             121.461          estimate D2E/DX2                !
 ! A9    A(4,3,33)             131.6003         estimate D2E/DX2                !
 ! A10   A(3,4,5)              108.5954         estimate D2E/DX2                !
 ! A11   A(3,4,7)              142.5529         estimate D2E/DX2                !
 ! A12   A(5,4,7)              108.8516         estimate D2E/DX2                !
 ! A13   A(2,5,4)              108.8516         estimate D2E/DX2                !
 ! A14   A(2,5,6)              142.553          estimate D2E/DX2                !
 ! A15   A(4,5,6)              108.5954         estimate D2E/DX2                !
 ! A16   A(5,6,8)              106.9388         estimate D2E/DX2                !
 ! A17   A(5,6,19)             131.6002         estimate D2E/DX2                !
 ! A18   A(8,6,19)             121.461          estimate D2E/DX2                !
 ! A19   A(4,7,8)              102.9804         estimate D2E/DX2                !
 ! A20   A(4,7,10)             132.2135         estimate D2E/DX2                !
 ! A21   A(8,7,10)             124.8061         estimate D2E/DX2                !
 ! A22   A(6,8,7)              112.6338         estimate D2E/DX2                !
 ! A23   A(6,8,11)             122.7906         estimate D2E/DX2                !
 ! A24   A(7,8,11)             124.5756         estimate D2E/DX2                !
 ! A25   A(14,13,19)           112.9601         estimate D2E/DX2                !
 ! A26   A(14,13,23)           121.4363         estimate D2E/DX2                !
 ! A27   A(19,13,23)           125.6036         estimate D2E/DX2                !
 ! A28   A(13,14,20)           112.2514         estimate D2E/DX2                !
 ! A29   A(13,14,24)           121.7578         estimate D2E/DX2                !
 ! A30   A(20,14,24)           125.9908         estimate D2E/DX2                !
 ! A31   A(16,15,17)           119.2204         estimate D2E/DX2                !
 ! A32   A(16,15,24)           117.4297         estimate D2E/DX2                !
 ! A33   A(17,15,24)           123.3499         estimate D2E/DX2                !
 ! A34   A(15,17,18)           119.5919         estimate D2E/DX2                !
 ! A35   A(15,17,23)           123.0397         estimate D2E/DX2                !
 ! A36   A(18,17,23)           117.3684         estimate D2E/DX2                !
 ! A37   A(6,19,13)            127.5564         estimate D2E/DX2                !
 ! A38   A(6,19,22)            122.9595         estimate D2E/DX2                !
 ! A39   A(13,19,22)           109.4841         estimate D2E/DX2                !
 ! A40   A(14,20,21)           127.3603         estimate D2E/DX2                !
 ! A41   A(14,20,22)           111.7331         estimate D2E/DX2                !
 ! A42   A(21,20,22)           120.9067         estimate D2E/DX2                !
 ! A43   A(19,22,20)            93.5713         estimate D2E/DX2                !
 ! A44   A(13,23,17)           115.3662         estimate D2E/DX2                !
 ! A45   A(14,24,15)           115.0501         estimate D2E/DX2                !
 ! A46   A(26,25,31)           112.2515         estimate D2E/DX2                !
 ! A47   A(26,25,35)           121.7578         estimate D2E/DX2                !
 ! A48   A(31,25,35)           125.9908         estimate D2E/DX2                !
 ! A49   A(25,26,33)           112.96           estimate D2E/DX2                !
 ! A50   A(25,26,36)           121.4363         estimate D2E/DX2                !
 ! A51   A(33,26,36)           125.6037         estimate D2E/DX2                !
 ! A52   A(28,27,29)           119.592          estimate D2E/DX2                !
 ! A53   A(28,27,36)           117.3684         estimate D2E/DX2                !
 ! A54   A(29,27,36)           123.0396         estimate D2E/DX2                !
 ! A55   A(27,29,30)           119.2205         estimate D2E/DX2                !
 ! A56   A(27,29,35)           123.3499         estimate D2E/DX2                !
 ! A57   A(30,29,35)           117.4296         estimate D2E/DX2                !
 ! A58   A(25,31,32)           127.3602         estimate D2E/DX2                !
 ! A59   A(25,31,34)           111.733          estimate D2E/DX2                !
 ! A60   A(32,31,34)           120.9068         estimate D2E/DX2                !
 ! A61   A(3,33,26)            127.5564         estimate D2E/DX2                !
 ! A62   A(3,33,34)            122.9594         estimate D2E/DX2                !
 ! A63   A(26,33,34)           109.4841         estimate D2E/DX2                !
 ! A64   A(31,34,33)            93.5713         estimate D2E/DX2                !
 ! A65   A(25,35,29)           115.0502         estimate D2E/DX2                !
 ! A66   A(26,36,27)           115.3662         estimate D2E/DX2                !
 ! D1    D(3,1,2,5)              0.0293         estimate D2E/DX2                !
 ! D2    D(3,1,2,9)           -179.9607         estimate D2E/DX2                !
 ! D3    D(12,1,2,5)           179.9856         estimate D2E/DX2                !
 ! D4    D(12,1,2,9)            -0.0044         estimate D2E/DX2                !
 ! D5    D(2,1,3,4)             -0.023          estimate D2E/DX2                !
 ! D6    D(2,1,3,33)           179.9473         estimate D2E/DX2                !
 ! D7    D(12,1,3,4)          -179.9802         estimate D2E/DX2                !
 ! D8    D(12,1,3,33)           -0.0099         estimate D2E/DX2                !
 ! D9    D(1,2,5,4)             -0.0246         estimate D2E/DX2                !
 ! D10   D(1,2,5,6)            179.9943         estimate D2E/DX2                !
 ! D11   D(9,2,5,4)            179.9643         estimate D2E/DX2                !
 ! D12   D(9,2,5,6)             -0.0168         estimate D2E/DX2                !
 ! D13   D(1,3,4,5)              0.0058         estimate D2E/DX2                !
 ! D14   D(1,3,4,7)           -179.9749         estimate D2E/DX2                !
 ! D15   D(33,3,4,5)          -179.9602         estimate D2E/DX2                !
 ! D16   D(33,3,4,7)             0.0591         estimate D2E/DX2                !
 ! D17   D(1,3,33,26)           -0.0292         estimate D2E/DX2                !
 ! D18   D(1,3,33,34)         -179.9652         estimate D2E/DX2                !
 ! D19   D(4,3,33,26)          179.9328         estimate D2E/DX2                !
 ! D20   D(4,3,33,34)           -0.0032         estimate D2E/DX2                !
 ! D21   D(3,4,5,2)              0.0123         estimate D2E/DX2                !
 ! D22   D(3,4,5,6)           -179.9998         estimate D2E/DX2                !
 ! D23   D(7,4,5,2)            179.9999         estimate D2E/DX2                !
 ! D24   D(7,4,5,6)             -0.0122         estimate D2E/DX2                !
 ! D25   D(3,4,7,8)           -179.9945         estimate D2E/DX2                !
 ! D26   D(3,4,7,10)             0.0167         estimate D2E/DX2                !
 ! D27   D(5,4,7,8)              0.0248         estimate D2E/DX2                !
 ! D28   D(5,4,7,10)          -179.964          estimate D2E/DX2                !
 ! D29   D(2,5,6,8)            179.9749         estimate D2E/DX2                !
 ! D30   D(2,5,6,19)            -0.0591         estimate D2E/DX2                !
 ! D31   D(4,5,6,8)             -0.0062         estimate D2E/DX2                !
 ! D32   D(4,5,6,19)           179.9598         estimate D2E/DX2                !
 ! D33   D(5,6,8,7)              0.0235         estimate D2E/DX2                !
 ! D34   D(5,6,8,11)           179.9785         estimate D2E/DX2                !
 ! D35   D(19,6,8,7)          -179.9467         estimate D2E/DX2                !
 ! D36   D(19,6,8,11)            0.0083         estimate D2E/DX2                !
 ! D37   D(5,6,19,13)         -179.9317         estimate D2E/DX2                !
 ! D38   D(5,6,19,22)            0.0042         estimate D2E/DX2                !
 ! D39   D(8,6,19,13)            0.0302         estimate D2E/DX2                !
 ! D40   D(8,6,19,22)          179.966          estimate D2E/DX2                !
 ! D41   D(4,7,8,6)             -0.0298         estimate D2E/DX2                !
 ! D42   D(4,7,8,11)          -179.9839         estimate D2E/DX2                !
 ! D43   D(10,7,8,6)           179.9601         estimate D2E/DX2                !
 ! D44   D(10,7,8,11)            0.006          estimate D2E/DX2                !
 ! D45   D(19,13,14,20)          0.0001         estimate D2E/DX2                !
 ! D46   D(19,13,14,24)        179.9881         estimate D2E/DX2                !
 ! D47   D(23,13,14,20)       -179.9979         estimate D2E/DX2                !
 ! D48   D(23,13,14,24)         -0.0099         estimate D2E/DX2                !
 ! D49   D(14,13,19,6)         179.9366         estimate D2E/DX2                !
 ! D50   D(14,13,19,22)         -0.0063         estimate D2E/DX2                !
 ! D51   D(23,13,19,6)          -0.0655         estimate D2E/DX2                !
 ! D52   D(23,13,19,22)        179.9916         estimate D2E/DX2                !
 ! D53   D(14,13,23,17)          0.018          estimate D2E/DX2                !
 ! D54   D(19,13,23,17)       -179.9797         estimate D2E/DX2                !
 ! D55   D(13,14,20,21)        179.9929         estimate D2E/DX2                !
 ! D56   D(13,14,20,22)          0.0064         estimate D2E/DX2                !
 ! D57   D(24,14,20,21)          0.0055         estimate D2E/DX2                !
 ! D58   D(24,14,20,22)       -179.981          estimate D2E/DX2                !
 ! D59   D(13,14,24,15)         -0.0012         estimate D2E/DX2                !
 ! D60   D(20,14,24,15)        179.9851         estimate D2E/DX2                !
 ! D61   D(16,15,17,18)          0.0026         estimate D2E/DX2                !
 ! D62   D(16,15,17,23)       -179.9897         estimate D2E/DX2                !
 ! D63   D(24,15,17,18)        179.9984         estimate D2E/DX2                !
 ! D64   D(24,15,17,23)          0.006          estimate D2E/DX2                !
 ! D65   D(16,15,24,14)        179.999          estimate D2E/DX2                !
 ! D66   D(17,15,24,14)          0.0032         estimate D2E/DX2                !
 ! D67   D(15,17,23,13)         -0.0163         estimate D2E/DX2                !
 ! D68   D(18,17,23,13)        179.9912         estimate D2E/DX2                !
 ! D69   D(6,19,22,20)        -179.9376         estimate D2E/DX2                !
 ! D70   D(13,19,22,20)          0.0085         estimate D2E/DX2                !
 ! D71   D(14,20,22,19)         -0.0086         estimate D2E/DX2                !
 ! D72   D(21,20,22,19)       -179.9961         estimate D2E/DX2                !
 ! D73   D(31,25,26,33)         -0.0002         estimate D2E/DX2                !
 ! D74   D(31,25,26,36)        179.9975         estimate D2E/DX2                !
 ! D75   D(35,25,26,33)       -179.988          estimate D2E/DX2                !
 ! D76   D(35,25,26,36)          0.0096         estimate D2E/DX2                !
 ! D77   D(26,25,31,32)       -179.993          estimate D2E/DX2                !
 ! D78   D(26,25,31,34)         -0.0062         estimate D2E/DX2                !
 ! D79   D(35,25,31,32)         -0.0058         estimate D2E/DX2                !
 ! D80   D(35,25,31,34)        179.9809         estimate D2E/DX2                !
 ! D81   D(26,25,35,29)          0.0012         estimate D2E/DX2                !
 ! D82   D(31,25,35,29)       -179.9848         estimate D2E/DX2                !
 ! D83   D(25,26,33,3)        -179.9367         estimate D2E/DX2                !
 ! D84   D(25,26,33,34)          0.0063         estimate D2E/DX2                !
 ! D85   D(36,26,33,3)           0.0657         estimate D2E/DX2                !
 ! D86   D(36,26,33,34)       -179.9912         estimate D2E/DX2                !
 ! D87   D(25,26,36,27)         -0.0178         estimate D2E/DX2                !
 ! D88   D(33,26,36,27)        179.9796         estimate D2E/DX2                !
 ! D89   D(28,27,29,30)         -0.0029         estimate D2E/DX2                !
 ! D90   D(28,27,29,35)       -179.9986         estimate D2E/DX2                !
 ! D91   D(36,27,29,30)        179.9896         estimate D2E/DX2                !
 ! D92   D(36,27,29,35)         -0.0062         estimate D2E/DX2                !
 ! D93   D(28,27,36,26)       -179.9911         estimate D2E/DX2                !
 ! D94   D(29,27,36,26)          0.0163         estimate D2E/DX2                !
 ! D95   D(27,29,35,25)         -0.0031         estimate D2E/DX2                !
 ! D96   D(30,29,35,25)       -179.9989         estimate D2E/DX2                !
 ! D97   D(25,31,34,33)          0.0085         estimate D2E/DX2                !
 ! D98   D(32,31,34,33)        179.9962         estimate D2E/DX2                !
 ! D99   D(3,33,34,31)         179.9378         estimate D2E/DX2                !
 ! D100  D(26,33,34,31)         -0.0084         estimate D2E/DX2                !
 --------------------------------------------------------------------------------
 Trust Radius=3.00D-01 FncErr=1.00D-07 GrdErr=1.00D-06
 Number of steps in this run=    216 maximum allowed number of steps=    216.
 GradGradGradGradGradGradGradGradGradGradGradGradGradGradGradGradGradGrad

                          Input orientation:                          
 ---------------------------------------------------------------------
 Center     Atomic      Atomic             Coordinates (Angstroms)
 Number     Number       Type             X           Y           Z
 ---------------------------------------------------------------------
      1          7           0        0.618217   -1.418779    2.367732
      2          6           0        1.071224   -0.076991    2.404075
      3          6           0        0.042744   -1.756612    1.147267
      4          6           0        0.106086   -0.623918    0.341882
      5          6           0        0.727870    0.420657    1.077243
      6          6           0        0.791208    1.553352    0.271859
      7          6           0       -0.237270   -0.126270   -0.984950
      8          7           0        0.215740    1.215517   -0.948609
      9          8           0        1.613144    0.453480    3.368905
     10          8           0       -0.779195   -0.656740   -1.949777
     11          1           0        0.136201    1.871049   -1.718717
     12          1           0        0.697733   -2.074303    3.137849
     13          6           0        1.328922    3.955883   -0.372220
     14          6           0        1.931169    5.135391    0.201839
     15          6           0        1.564563    6.261457   -1.724646
     16          1           0        1.633363    7.169489   -2.320302
     17          6           0        0.964977    5.090473   -2.298876
     18          1           0        0.588167    5.125054   -3.318706
     19          6           0        1.310428    2.861311    0.514413
     20          6           0        2.359682    4.925367    1.506794
     21          1           0        2.841025    5.637958    2.161914
     22         16           0        2.039157    3.327405    2.029698
     23          7           0        0.842917    3.953708   -1.647004
     24          7           0        2.042736    6.302097   -0.502675
     25          6           0       -1.097255   -5.338639    1.217301
     26          6           0       -0.495002   -4.159134    1.791359
     27          6           0       -0.131101   -5.293712    3.718031
     28          1           0        0.245690   -5.328287    4.737867
     29          6           0       -0.730689   -6.464694    3.143801
     30          1           0       -0.799506   -7.372721    3.739461
     31          6           0       -1.525752   -5.128619   -0.087661
     32          1           0       -2.007094   -5.841210   -0.742781
     33          6           0       -0.476485   -3.064569    0.904717
     34         16           0       -1.205201   -3.530666   -0.610572
     35          7           0       -1.208845   -6.505338    1.921823
     36          7           0       -0.009019   -4.156953    3.066150
 ---------------------------------------------------------------------
                    Distance matrix (angstroms):
                    1          2          3          4          5
     1  N    0.000000
     2  C    1.416662   0.000000
     3  C    1.390984   2.336336   0.000000
     4  C    2.235654   2.341636   1.391277   0.000000
     5  C    2.249647   1.458091   2.283594   1.420742   0.000000
     6  C    3.640903   2.698661   3.504625   2.283594   1.391277
     7  C    3.693632   3.633191   2.698661   1.458091   2.341637
     8  N    4.254365   3.693632   3.640903   2.249647   2.235656
     9  O    2.344692   1.227181   3.505187   3.548926   2.456929
    10  O    4.601559   4.766150   3.387770   2.456929   3.548926
    11  H    5.268242   4.654733   4.624124   3.236022   3.204856
    12  H    1.014453   2.160365   2.119518   3.204855   3.236021
    13  C    6.074490   4.902886   6.049437   4.793730   3.867820
    14  C    7.026527   5.723485   7.208307   6.043193   4.943984
    15  C    8.753808   7.580610   8.651777   7.335263   6.531890
    16  H    9.836998   8.668749   9.707182   8.375977   7.609860
    17  C    8.016722   6.987970   7.720686   6.353390   5.767285
    18  H    8.669385   7.748860   8.221905   6.832495   6.440127
    19  C    4.715201   3.501665   4.830397   3.691480   2.571564
    20  C    6.634915   5.242978   7.081406   6.101662   4.810378
    21  H    7.401403   5.987611   7.971170   7.071315   5.732553
    22  S    4.965843   3.559068   5.532773   4.711522   3.328037
    23  N    6.710604   5.719257   6.407494   5.045121   4.462870
    24  N    8.359451   7.077132   8.465522   7.241103   6.230277
    25  C    4.430760   5.813405   3.759710   4.943984   6.043194
    26  C    3.013471   4.415017   2.544826   3.867821   4.793732
    27  C    4.171318   5.512372   4.376086   5.767288   6.353393
    28  H    4.587000   5.805532   5.068576   6.440129   6.832498
    29  C    5.280444   6.678086   5.172077   6.531892   7.335265
    30  H    6.272241   7.649220   6.242558   7.609861   8.375979
    31  C    4.938468   6.202578   3.918630   4.810378   6.101662
    32  H    6.010445   7.252928   4.945509   5.732553   7.071315
    33  C    2.459148   3.683626   1.427999   2.571566   3.691482
    34  S    4.081080   5.118406   2.791887   3.328036   4.711522
    35  N    5.423105   6.837757   4.971600   6.230278   7.241104
    36  N    2.894617   4.272161   3.073504   4.462871   5.045123
                    6          7          8          9         10
     6  C    0.000000
     7  C    2.336336   0.000000
     8  N    1.390985   1.416662   0.000000
     9  O    3.387771   4.766151   4.601561   0.000000
    10  O    3.505187   1.227181   2.344692   5.936687   0.000000
    11  H    2.119518   2.160365   1.014453   5.484046   2.698343
    12  H    4.624123   4.654733   5.268242   2.698342   5.484044
    13  C    2.544824   4.415016   3.013470   5.132604   5.311227
    14  C    3.759710   5.813405   4.430761   5.661425   6.747170
    15  C    5.172075   6.678084   5.280442   7.725233   7.307895
    16  H    6.242557   7.649218   6.272239   8.801833   8.198023
    17  C    4.376083   5.512369   4.171314   7.351569   6.016183
    18  H    5.068574   5.805529   4.586997   8.221820   6.096949
    19  C    1.427998   3.683626   2.459149   3.746653   4.776551
    20  C    3.918630   6.202579   4.938469   4.901280   7.277386
    21  H    4.945509   7.252929   6.010446   5.462905   8.344772
    22  S    2.791888   5.118407   4.081082   3.199126   6.297042
    23  N    3.073503   4.272159   2.894615   6.164754   4.896851
    24  N    4.971600   6.837757   5.423105   7.027091   7.647406
    25  C    7.208307   5.723484   7.026527   6.747170   5.661424
    26  C    6.049439   4.902888   6.074492   5.311228   5.132604
    27  C    7.720689   6.987972   8.016726   6.016186   7.351570
    28  H    8.221908   7.748862   8.669387   6.096951   8.221820
    29  C    8.651779   7.580611   8.753810   7.307897   7.725233
    30  H    9.707184   8.668750   9.836999   8.198025   8.801832
    31  C    7.081405   5.242977   6.634914   7.277386   4.901278
    32  H    7.971169   5.987609   7.401402   8.344771   5.462903
    33  C    4.830398   3.501666   4.715202   4.776551   3.746653
    34  S    5.532773   3.559067   4.965843   6.297041   3.199125
    35  N    8.465523   7.077132   8.359451   7.647406   7.027089
    36  N    6.407496   5.719258   6.710607   4.896853   6.164754
                   11         12         13         14         15
    11  H    0.000000
    12  H    6.282305   0.000000
    13  C    2.753574   7.005864   0.000000
    14  C    4.191226   7.881701   1.443428   0.000000
    15  C    4.616918   9.689177   2.683329   2.261364   0.000000
    16  H    5.538670  10.775644   3.770275   3.253834   1.088146
    17  C    3.374633   8.997967   2.265337   2.681253   1.435426
    18  H    3.654146   9.671083   3.255374   3.768023   2.187644
    19  C    2.710405   5.622997   1.408740   2.377911   4.079088
    20  C    4.967560   7.376842   2.352246   1.389475   3.586022
    21  H    6.046898   8.063815   3.396714   2.218627   4.138050
    22  S    4.448913   5.675021   2.582369   2.573236   4.788423
    23  N    2.200468   7.697585   1.364287   2.449263   2.419195
    24  N    4.974718   9.231821   2.455864   1.367476   1.312827
    25  C    7.881701   4.191226   9.736583  10.950243  12.259794
    26  C    7.005866   2.753574   8.594258   9.736584  11.188960
    27  C    8.997971   3.374636  10.218455  11.197444  12.884873
    28  H    9.671086   3.654150  10.652802  11.528441  13.335129
    29  C    9.689179   4.616921  11.188960  12.259796  13.817557
    30  H   10.775646   5.538673  12.238194  13.282478  14.877369
    31  C    7.376841   4.967559   9.526716  10.834390  11.914848
    32  H    8.063814   6.046897  10.356126  11.699914  12.656830
    33  C    5.622999   2.710405   7.360490   8.574974   9.902231
    34  S    5.675022   4.448911   7.907402   9.251885  10.237110
    35  N    9.231822   4.974719  11.006364  12.178859  13.563907
    36  N    7.697587   2.200470   8.912384   9.915456  11.574591
                   16         17         18         19         20
    16  H    0.000000
    17  C    2.183920   0.000000
    18  H    2.503789   1.087766   0.000000
    19  C    5.167233   3.605980   4.509877   0.000000
    20  C    4.495585   4.056549   5.144277   2.519143   0.000000
    21  H    4.888179   4.870107   5.947742   3.573060   1.081045
    22  S    5.817970   4.795709   5.826005   1.744815   1.711621
    23  N    3.379258   1.316081   2.057070   2.466500   3.631961
    24  N    2.055170   2.419904   3.381010   3.661933   2.456381
    25  C   13.282476  11.197441  11.528438   8.574973  10.834391
    26  C   12.238194  10.218453  10.652801   7.360490   9.526718
    27  C   13.960880  12.051384  12.593002   8.879503  10.748169
    28  H   14.420048  12.593001  13.202197   9.275815  10.956560
    29  C   14.877369  12.884871  13.335128   9.902233  11.914851
    30  H   15.940999  13.960878  14.420046  10.935637  12.892177
    31  C   12.892174  10.748165  10.956556   8.499729  10.895940
    32  H   13.602198  11.434873  11.559832   9.397891  11.834209
    33  C   10.935637   8.879501   9.275813   6.201730   8.499730
    34  S   11.201515   9.048982   9.245088   6.960700   9.417862
    35  N   14.597077  12.530069  12.882485   9.801105  11.981972
    36  N   12.649094  10.735318  11.281785   7.583425   9.514771
                   21         22         23         24         25
    21  H    0.000000
    22  S    2.449312   0.000000
    23  N    4.619198   3.916808   0.000000
    24  N    2.859787   3.906625   2.874715   0.000000
    25  C   11.699916   9.251886   9.915454  12.178859   0.000000
    26  C   10.356129   7.907404   8.912383  11.006365   1.443428
    27  C   11.434878   9.048986  10.735320  12.530072   2.681254
    28  H   11.559837   9.245091  11.281786  12.882488   3.768022
    29  C   12.656833  10.237113  11.574591  13.563909   2.261365
    30  H   13.602202  11.201517  12.649093  14.597079   3.253834
    31  C   11.834209   9.417862   9.514768  11.981970   1.389476
    32  H   12.795031  10.398187  10.241123  12.803073   2.218627
    33  C    9.397893   6.960702   7.583424   9.801105   2.377911
    34  S   10.398187   8.033058   7.828463  10.355866   2.573235
    35  N   12.803075  10.355867  11.240013  13.434335   1.367476
    36  N   10.241127   7.828466   9.419259  11.240015   2.449262
                   26         27         28         29         30
    26  C    0.000000
    27  C    2.265338   0.000000
    28  H    3.255373   1.087765   0.000000
    29  C    2.683329   1.435425   2.187643   0.000000
    30  H    3.770274   2.183919   2.503789   1.088145   0.000000
    31  C    2.352246   4.056550   5.144278   3.586024   4.495586
    32  H    3.396714   4.870108   5.947741   4.138050   4.888178
    33  C    1.408740   3.605982   4.509877   4.079089   5.167232
    34  S    2.582369   4.795709   5.826004   4.788423   5.817969
    35  N    2.455864   2.419903   3.381009   1.312827   2.055169
    36  N    1.364286   1.316083   2.057070   2.419195   3.379257
                   31         32         33         34         35
    31  C    0.000000
    32  H    1.081045   0.000000
    33  C    2.519142   3.573059   0.000000
    34  S    1.711620   2.449311   1.744814   0.000000
    35  N    2.456382   2.859787   3.661932   3.906624   0.000000
    36  N    3.631961   4.619197   2.466500   3.916806   2.874714
                   36
    36  N    0.000000
 Symmetry turned off by external request.
 Stoichiometry    C18H8N6O2S2(1+,2)
 Framework group  C1[X(C18H8N6O2S2)]
 Deg. of freedom   102
 Full point group                 C1      NOp   1
 Rotational constants (GHZ):      0.4636123      0.0738764      0.0637223
 Standard basis: 6-31+G(d,p) (6D, 7F)
 Integral buffers will be    262144 words long.
 Raffenetti 2 integral format.
 Two-electron integral symmetry is turned off.
   580 basis functions,  1000 primitive gaussians,   580 cartesian basis functions
   103 alpha electrons      102 beta electrons
       nuclear repulsion energy      2659.1319098365 Hartrees.
 NAtoms=   36 NActive=   36 NUniq=   36 SFac= 1.00D+00 NAtFMM=   50 NAOKFM=F Big=F
 One-electron integrals computed using PRISM.
 NBasis=   580 RedAO= T  NBF=   580
 NBsUse=   573 1.00D-06 NBFU=   573
 Harris functional with IExCor=  402 diagonalized for initial guess.
 ExpMin= 4.05D-02 ExpMax= 2.19D+04 ExpMxC= 3.30D+03 IAcc=2 IRadAn=         0 AccDes= 0.00D+00
 HarFok:  IExCor=  402 AccDes= 0.00D+00 IRadAn=         0 IDoV= 1
 ScaDFX=  1.000000  1.000000  1.000000  1.000000
 FoFCou: FMM=F IPFlag=           0 FMFlag=      100000 FMFlg1=           0
         NFxFlg=           0 DoJE=T BraDBF=F KetDBF=T FulRan=T
         Omega=  0.000000  0.000000  1.000000  0.000000  0.000000 ICntrl=     500 IOpCl=  0
         NMat0=    1 NMatS0=    1 NMatT0=    0 NMatD0=    1 NMtDS0=    0 NMtDT0=    0
         I1Cent=           4 NGrid=           0.
 Symmetry not used in FoFCou.
 Initial guess <Sx>= 0.0000 <Sy>= 0.0000 <Sz>= 0.5000 <S**2>= 0.7500 S= 0.5000
 Requested convergence on RMS density matrix=1.00D-08 within 128 cycles.
 Requested convergence on MAX density matrix=1.00D-06.
 Requested convergence on             energy=1.00D-06.
 No special actions if energy rises.
 Restarting incremental Fock formation.
 DSYEVD returned Info=       41471 IAlg= 4 N=   573 NDim=   573 NE2=       56239 trying DSYEV.
 SCF Done:  E(UB3LYP) =  -1965.86308753     A.U. after   22 cycles
             Convg  =    0.7772D-08             -V/T =  2.0069
 <Sx>= 0.0000 <Sy>= 0.0000 <Sz>= 0.5000 <S**2>= 0.7644 S= 0.5072
 <L.S>= 0.000000000000E+00
 Annihilation of the first spin contaminant:
 S**2 before annihilation     0.7644,   after     0.7502

 **********************************************************************

            Population analysis using the SCF density.

 **********************************************************************

 Alpha  occ. eigenvalues --  -89.07871 -89.07871 -19.28232 -19.28232 -14.52254
 Alpha  occ. eigenvalues --  -14.52254 -14.49692 -14.49692 -14.48873 -14.48873
 Alpha  occ. eigenvalues --  -10.44598 -10.44598 -10.42618 -10.42618 -10.38737
 Alpha  occ. eigenvalues --  -10.38737 -10.38644 -10.38644 -10.38109 -10.38109
 Alpha  occ. eigenvalues --  -10.37749 -10.37749 -10.37709 -10.37709 -10.36803
 Alpha  occ. eigenvalues --  -10.36803 -10.35726 -10.35679  -8.13604  -8.13604
 Alpha  occ. eigenvalues --   -6.10008  -6.10008  -6.09600  -6.09600  -6.09400
 Alpha  occ. eigenvalues --   -6.09400  -1.19345  -1.18762  -1.12895  -1.12608
 Alpha  occ. eigenvalues --   -1.12024  -1.10654  -1.05431  -1.05400  -1.03203
 Alpha  occ. eigenvalues --   -1.03180  -0.96069  -0.93033  -0.91571  -0.90146
 Alpha  occ. eigenvalues --   -0.90027  -0.86119  -0.82930  -0.82030  -0.80705
 Alpha  occ. eigenvalues --   -0.80702  -0.76455  -0.76242  -0.75666  -0.72812
 Alpha  occ. eigenvalues --   -0.70472  -0.68363  -0.67942  -0.67747  -0.66288
 Alpha  occ. eigenvalues --   -0.64758  -0.63556  -0.63089  -0.62681  -0.61696
 Alpha  occ. eigenvalues --   -0.60295  -0.60114  -0.58674  -0.58599  -0.57795
 Alpha  occ. eigenvalues --   -0.57216  -0.57209  -0.56765  -0.56471  -0.56420
 Alpha  occ. eigenvalues --   -0.54805  -0.53785  -0.53378  -0.52349  -0.51064
 Alpha  occ. eigenvalues --   -0.50015  -0.49854  -0.49435  -0.49292  -0.47571
 Alpha  occ. eigenvalues --   -0.47220  -0.45554  -0.45550  -0.41955  -0.41639
 Alpha  occ. eigenvalues --   -0.40545  -0.40177  -0.40090  -0.39462  -0.38782
 Alpha  occ. eigenvalues --   -0.38696  -0.38693  -0.33826
 Alpha virt. eigenvalues --   -0.25510  -0.22833  -0.20496  -0.16586  -0.13581
 Alpha virt. eigenvalues --   -0.13568  -0.12519  -0.11747  -0.11684  -0.10623
 Alpha virt. eigenvalues --   -0.10456  -0.09637  -0.08077  -0.08028  -0.07313
 Alpha virt. eigenvalues --   -0.07106  -0.06476  -0.06431  -0.06090  -0.05622
 Alpha virt. eigenvalues --   -0.04965  -0.04866  -0.04817  -0.03960  -0.03554
 Alpha virt. eigenvalues --   -0.03285  -0.02988  -0.02950  -0.02731  -0.02023
 Alpha virt. eigenvalues --   -0.01995  -0.01897  -0.01808  -0.01061  -0.00852
 Alpha virt. eigenvalues --   -0.00519  -0.00451  -0.00364  -0.00243   0.00329
 Alpha virt. eigenvalues --    0.00841   0.01326   0.01650   0.01673   0.01892
 Alpha virt. eigenvalues --    0.02312   0.02868   0.03241   0.03431   0.03583
 Alpha virt. eigenvalues --    0.03743   0.03996   0.04108   0.04714   0.05208
 Alpha virt. eigenvalues --    0.05584   0.06100   0.06147   0.06299   0.06420
 Alpha virt. eigenvalues --    0.06776   0.07374   0.07468   0.07482   0.07737
 Alpha virt. eigenvalues --    0.08617   0.08674   0.08726   0.09082   0.09516
 Alpha virt. eigenvalues --    0.09634   0.09964   0.10129   0.10174   0.10335
 Alpha virt. eigenvalues --    0.10821   0.10872   0.11064   0.11720   0.11842
 Alpha virt. eigenvalues --    0.11927   0.12207   0.12232   0.12444   0.12496
 Alpha virt. eigenvalues --    0.12782   0.13342   0.13589   0.13891   0.14099
 Alpha virt. eigenvalues --    0.14710   0.14857   0.15089   0.15235   0.15900
 Alpha virt. eigenvalues --    0.15942   0.16195   0.16345   0.17067   0.17088
 Alpha virt. eigenvalues --    0.17115   0.17211   0.17765   0.18274   0.18306
 Alpha virt. eigenvalues --    0.18466   0.18498   0.18786   0.19440   0.19697
 Alpha virt. eigenvalues --    0.19823   0.19859   0.19888   0.20513   0.20636
 Alpha virt. eigenvalues --    0.20811   0.21111   0.21219   0.21427   0.21721
 Alpha virt. eigenvalues --    0.22003   0.22627   0.22820   0.22916   0.23040
 Alpha virt. eigenvalues --    0.23859   0.24652   0.25180   0.25279   0.25542
 Alpha virt. eigenvalues --    0.25633   0.26328   0.26996   0.27361   0.28580
 Alpha virt. eigenvalues --    0.28647   0.29460   0.29647   0.31127   0.32055
 Alpha virt. eigenvalues --    0.32329   0.32724   0.33870   0.34123   0.35997
 Alpha virt. eigenvalues --    0.36017   0.36881   0.37041   0.38512   0.38783
 Alpha virt. eigenvalues --    0.39385   0.40389   0.40645   0.41453   0.41530
 Alpha virt. eigenvalues --    0.42654   0.45190   0.45684   0.46616   0.48044
 Alpha virt. eigenvalues --    0.48846   0.49624   0.50562   0.50990   0.51187
 Alpha virt. eigenvalues --    0.52219   0.52417   0.53393   0.53659   0.54505
 Alpha virt. eigenvalues --    0.54752   0.54953   0.56559   0.56989   0.57798
 Alpha virt. eigenvalues --    0.57823   0.58947   0.59145   0.60530   0.60659
 Alpha virt. eigenvalues --    0.60938   0.61742   0.62581   0.63279   0.63485
 Alpha virt. eigenvalues --    0.64113   0.64683   0.66132   0.66143   0.67642
 Alpha virt. eigenvalues --    0.67881   0.67976   0.68156   0.69526   0.70547
 Alpha virt. eigenvalues --    0.71431   0.71770   0.72037   0.73375   0.74254
 Alpha virt. eigenvalues --    0.74695   0.75416   0.76853   0.76923   0.77895
 Alpha virt. eigenvalues --    0.79164   0.79539   0.79760   0.81122   0.81270
 Alpha virt. eigenvalues --    0.82810   0.82948   0.83356   0.84694   0.85017
 Alpha virt. eigenvalues --    0.85659   0.85662   0.86463   0.87618   0.87839
 Alpha virt. eigenvalues --    0.87912   0.89224   0.89935   0.91822   0.92760
 Alpha virt. eigenvalues --    0.93783   0.93902   0.94984   0.95028   0.95601
 Alpha virt. eigenvalues --    0.96215   0.96896   0.98012   0.99619   1.00565
 Alpha virt. eigenvalues --    1.01453   1.02148   1.02667   1.03523   1.03855
 Alpha virt. eigenvalues --    1.05314   1.05423   1.06199   1.06996   1.07627
 Alpha virt. eigenvalues --    1.09015   1.09605   1.09721   1.09849   1.10755
 Alpha virt. eigenvalues --    1.11558   1.12280   1.12821   1.12832   1.13196
 Alpha virt. eigenvalues --    1.13290   1.14000   1.14265   1.16447   1.16793
 Alpha virt. eigenvalues --    1.17267   1.18473   1.18933   1.19077   1.19496
 Alpha virt. eigenvalues --    1.20477   1.20786   1.21339   1.22050   1.22930
 Alpha virt. eigenvalues --    1.23679   1.23722   1.23773   1.25187   1.25334
 Alpha virt. eigenvalues --    1.26420   1.27448   1.28518   1.29223   1.30157
 Alpha virt. eigenvalues --    1.31148   1.31174   1.32204   1.32216   1.32428
 Alpha virt. eigenvalues --    1.33319   1.33347   1.35325   1.35909   1.36848
 Alpha virt. eigenvalues --    1.37264   1.39613   1.41321   1.41414   1.43188
 Alpha virt. eigenvalues --    1.47464   1.47535   1.48806   1.52601   1.52656
 Alpha virt. eigenvalues --    1.53094   1.53454   1.54112   1.55101   1.58288
 Alpha virt. eigenvalues --    1.60705   1.61536   1.62356   1.62367   1.66187
 Alpha virt. eigenvalues --    1.66727   1.66914   1.68102   1.68121   1.69499
 Alpha virt. eigenvalues --    1.70037   1.70492   1.70597   1.71126   1.72306
 Alpha virt. eigenvalues --    1.72512   1.75189   1.75282   1.76942   1.77188
 Alpha virt. eigenvalues --    1.78199   1.79164   1.80921   1.82233   1.82770
 Alpha virt. eigenvalues --    1.85120   1.85462   1.85745   1.87425   1.87560
 Alpha virt. eigenvalues --    1.89019   1.89251   1.90597   1.90931   1.91127
 Alpha virt. eigenvalues --    1.92571   1.93519   1.94341   1.96731   1.99226
 Alpha virt. eigenvalues --    2.00609   2.03175   2.03328   2.03664   2.04088
 Alpha virt. eigenvalues --    2.06453   2.06921   2.08309   2.08690   2.09042
 Alpha virt. eigenvalues --    2.11156   2.12329   2.12819   2.13874   2.14386
 Alpha virt. eigenvalues --    2.15611   2.17335   2.18598   2.19528   2.19940
 Alpha virt. eigenvalues --    2.20723   2.21528   2.22606   2.25646   2.27051
 Alpha virt. eigenvalues --    2.27925   2.27984   2.28244   2.28437   2.29028
 Alpha virt. eigenvalues --    2.30698   2.32255   2.33564   2.34062   2.34685
 Alpha virt. eigenvalues --    2.34994   2.37876   2.38237   2.39268   2.41357
 Alpha virt. eigenvalues --    2.41844   2.41942   2.42719   2.43185   2.44326
 Alpha virt. eigenvalues --    2.45458   2.48510   2.48606   2.50341   2.51240
 Alpha virt. eigenvalues --    2.51874   2.52085   2.53851   2.55566   2.57444
 Alpha virt. eigenvalues --    2.57531   2.57631   2.58758   2.60803   2.61718
 Alpha virt. eigenvalues --    2.62538   2.66450   2.66655   2.67860   2.68063
 Alpha virt. eigenvalues --    2.72548   2.75196   2.76888   2.78334   2.82178
 Alpha virt. eigenvalues --    2.83092   2.85104   2.85228   2.87299   2.88720
 Alpha virt. eigenvalues --    2.91029   2.92346   2.96275   2.96866   2.98766
 Alpha virt. eigenvalues --    3.04311   3.09151   3.09787   3.13727   3.15158
 Alpha virt. eigenvalues --    3.18845   3.19002   3.19609   3.20475   3.23103
 Alpha virt. eigenvalues --    3.32224   3.34630   3.34682   3.47313   3.48348
 Alpha virt. eigenvalues --    3.57538   3.57658   3.83615   3.84125   4.04219
 Alpha virt. eigenvalues --    4.05822   4.12491   4.16025   4.16407   4.21333
 Alpha virt. eigenvalues --    4.21511   4.23987   4.25500   4.26034   4.30278
 Alpha virt. eigenvalues --    4.32353   4.36413   4.38535   4.39813   4.42710
 Alpha virt. eigenvalues --    4.42956   4.48001   4.53380   4.54286   4.59739
 Alpha virt. eigenvalues --    4.66981   4.67486   4.68691   4.91286   4.99400
  Beta  occ. eigenvalues --  -89.07877 -89.07877 -19.27915 -19.27915 -14.52260
  Beta  occ. eigenvalues --  -14.52260 -14.49709 -14.49709 -14.48820 -14.48820
  Beta  occ. eigenvalues --  -10.44630 -10.44629 -10.42513 -10.42513 -10.38681
  Beta  occ. eigenvalues --  -10.38681 -10.38623 -10.38623 -10.37904 -10.37904
  Beta  occ. eigenvalues --  -10.37734 -10.37734 -10.37708 -10.37708 -10.36827
  Beta  occ. eigenvalues --  -10.36827 -10.35505 -10.35457  -8.13610  -8.13610
  Beta  occ. eigenvalues --   -6.10016  -6.10016  -6.09608  -6.09608  -6.09410
  Beta  occ. eigenvalues --   -6.09409  -1.18916  -1.18300  -1.12701  -1.12534
  Beta  occ. eigenvalues --   -1.11792  -1.10467  -1.05360  -1.05330  -1.03043
  Beta  occ. eigenvalues --   -1.03016  -0.95677  -0.92659  -0.91357  -0.90083
  Beta  occ. eigenvalues --   -0.89975  -0.85619  -0.82655  -0.81878  -0.80667
  Beta  occ. eigenvalues --   -0.80666  -0.76294  -0.76115  -0.75421  -0.72635
  Beta  occ. eigenvalues --   -0.70351  -0.68281  -0.67849  -0.67703  -0.66197
  Beta  occ. eigenvalues --   -0.64670  -0.63433  -0.63023  -0.62586  -0.60870
  Beta  occ. eigenvalues --   -0.60142  -0.59947  -0.58568  -0.58292  -0.57450
  Beta  occ. eigenvalues --   -0.57054  -0.57018  -0.56630  -0.56313  -0.55921
  Beta  occ. eigenvalues --   -0.54660  -0.53741  -0.53243  -0.51672  -0.50625
  Beta  occ. eigenvalues --   -0.49967  -0.49811  -0.48822  -0.48564  -0.46668
  Beta  occ. eigenvalues --   -0.46573  -0.45532  -0.45530  -0.41635  -0.40793
  Beta  occ. eigenvalues --   -0.40221  -0.40084  -0.39938  -0.38655  -0.38644
  Beta  occ. eigenvalues --   -0.38260  -0.37618
  Beta virt. eigenvalues --   -0.29135  -0.24278  -0.22187  -0.19913  -0.15960
  Beta virt. eigenvalues --   -0.13138  -0.13103  -0.12064  -0.11682  -0.11606
  Beta virt. eigenvalues --   -0.10423  -0.10070  -0.09619  -0.08044  -0.08007
  Beta virt. eigenvalues --   -0.07286  -0.07065  -0.06419  -0.06401  -0.06060
  Beta virt. eigenvalues --   -0.05571  -0.04949  -0.04797  -0.04791  -0.03525
  Beta virt. eigenvalues --   -0.03427  -0.03270  -0.02898  -0.02837  -0.02716
  Beta virt. eigenvalues --   -0.01998  -0.01933  -0.01878  -0.01105  -0.00828
  Beta virt. eigenvalues --   -0.00751  -0.00499  -0.00336  -0.00171  -0.00056
  Beta virt. eigenvalues --    0.00547   0.01026   0.01367   0.01667   0.01786
  Beta virt. eigenvalues --    0.01929   0.02442   0.02919   0.03302   0.03464
  Beta virt. eigenvalues --    0.03604   0.03795   0.04101   0.04135   0.04770
  Beta virt. eigenvalues --    0.05327   0.05715   0.06143   0.06188   0.06319
  Beta virt. eigenvalues --    0.06446   0.06809   0.07505   0.07518   0.07537
  Beta virt. eigenvalues --    0.07754   0.08640   0.08701   0.08780   0.09128
  Beta virt. eigenvalues --    0.09557   0.09681   0.10013   0.10156   0.10248
  Beta virt. eigenvalues --    0.10414   0.10886   0.10935   0.11148   0.11775
  Beta virt. eigenvalues --    0.11879   0.11968   0.12268   0.12282   0.12463
  Beta virt. eigenvalues --    0.12535   0.12855   0.13404   0.13682   0.13930
  Beta virt. eigenvalues --    0.14181   0.14845   0.14903   0.15130   0.15307
  Beta virt. eigenvalues --    0.15985   0.16011   0.16291   0.16364   0.17098
  Beta virt. eigenvalues --    0.17165   0.17191   0.17260   0.17818   0.18306
  Beta virt. eigenvalues --    0.18343   0.18511   0.18519   0.18811   0.19522
  Beta virt. eigenvalues --    0.19729   0.19846   0.19903   0.19953   0.20530
  Beta virt. eigenvalues --    0.20779   0.20885   0.21156   0.21269   0.21614
  Beta virt. eigenvalues --    0.21778   0.22070   0.22712   0.22847   0.23018
  Beta virt. eigenvalues --    0.23106   0.23905   0.24851   0.25218   0.25330
  Beta virt. eigenvalues --    0.25592   0.25729   0.26370   0.27043   0.27439
  Beta virt. eigenvalues --    0.28607   0.28700   0.29504   0.29702   0.31170
  Beta virt. eigenvalues --    0.32133   0.32428   0.32827   0.33910   0.34187
  Beta virt. eigenvalues --    0.36066   0.36098   0.36941   0.37084   0.38566
  Beta virt. eigenvalues --    0.38829   0.39378   0.40413   0.40670   0.41504
  Beta virt. eigenvalues --    0.41623   0.42749   0.45241   0.45734   0.46687
  Beta virt. eigenvalues --    0.48183   0.48914   0.49680   0.51027   0.51272
  Beta virt. eigenvalues --    0.51326   0.52334   0.52685   0.53550   0.53885
  Beta virt. eigenvalues --    0.54567   0.54869   0.55029   0.56580   0.56999
  Beta virt. eigenvalues --    0.58153   0.58396   0.58977   0.59216   0.60605
  Beta virt. eigenvalues --    0.60930   0.60985   0.61874   0.62605   0.63510
  Beta virt. eigenvalues --    0.63561   0.64231   0.65018   0.66206   0.66466
  Beta virt. eigenvalues --    0.67673   0.67925   0.68125   0.68881   0.69603
  Beta virt. eigenvalues --    0.70635   0.71810   0.72061   0.72106   0.73449
  Beta virt. eigenvalues --    0.74294   0.74727   0.75446   0.76887   0.77000
  Beta virt. eigenvalues --    0.77924   0.79225   0.79626   0.79872   0.81223
  Beta virt. eigenvalues --    0.81375   0.82833   0.83001   0.83392   0.84719
  Beta virt. eigenvalues --    0.85105   0.85712   0.85757   0.86602   0.87660
  Beta virt. eigenvalues --    0.87897   0.87966   0.89264   0.89957   0.91872
  Beta virt. eigenvalues --    0.92820   0.93881   0.94003   0.95025   0.95096
  Beta virt. eigenvalues --    0.95640   0.96242   0.96933   0.98082   0.99712
  Beta virt. eigenvalues --    1.00601   1.01477   1.02204   1.02723   1.03615
  Beta virt. eigenvalues --    1.03911   1.05499   1.05583   1.06300   1.07367
  Beta virt. eigenvalues --    1.07691   1.09211   1.09681   1.09845   1.09971
  Beta virt. eigenvalues --    1.11192   1.11934   1.12365   1.12864   1.12946
  Beta virt. eigenvalues --    1.13277   1.13946   1.14102   1.15047   1.16544
  Beta virt. eigenvalues --    1.17238   1.17411   1.18526   1.19156   1.19311
  Beta virt. eigenvalues --    1.19796   1.20673   1.20952   1.21732   1.22129
  Beta virt. eigenvalues --    1.23103   1.23798   1.23822   1.23892   1.25471
  Beta virt. eigenvalues --    1.25530   1.26521   1.27937   1.28771   1.29364
  Beta virt. eigenvalues --    1.30253   1.31304   1.31319   1.32261   1.32273
  Beta virt. eigenvalues --    1.32566   1.33412   1.33440   1.35518   1.36027
  Beta virt. eigenvalues --    1.37018   1.37453   1.39792   1.41502   1.41590
  Beta virt. eigenvalues --    1.43308   1.47520   1.47592   1.48939   1.52719
  Beta virt. eigenvalues --    1.53180   1.53227   1.54086   1.54308   1.55571
  Beta virt. eigenvalues --    1.58452   1.61328   1.61596   1.62464   1.62503
  Beta virt. eigenvalues --    1.66281   1.67007   1.67285   1.68201   1.68499
  Beta virt. eigenvalues --    1.69699   1.70273   1.70728   1.70760   1.71164
  Beta virt. eigenvalues --    1.72459   1.72602   1.75363   1.75430   1.77322
  Beta virt. eigenvalues --    1.77412   1.78264   1.79220   1.81005   1.82499
  Beta virt. eigenvalues --    1.82835   1.85496   1.85710   1.85886   1.87531
  Beta virt. eigenvalues --    1.87762   1.89344   1.89498   1.90796   1.91109
  Beta virt. eigenvalues --    1.91339   1.92909   1.93680   1.94482   1.97123
  Beta virt. eigenvalues --    1.99587   2.01138   2.03357   2.03609   2.04119
  Beta virt. eigenvalues --    2.04197   2.06529   2.06934   2.08338   2.08766
  Beta virt. eigenvalues --    2.09244   2.11340   2.12523   2.12935   2.13999
  Beta virt. eigenvalues --    2.14704   2.15776   2.17528   2.18770   2.19642
  Beta virt. eigenvalues --    2.20309   2.21027   2.21887   2.22831   2.25983
  Beta virt. eigenvalues --    2.27336   2.28022   2.28144   2.28521   2.28647
  Beta virt. eigenvalues --    2.29145   2.30846   2.32430   2.33710   2.34132
  Beta virt. eigenvalues --    2.34765   2.35152   2.37993   2.38336   2.39366
  Beta virt. eigenvalues --    2.41596   2.42139   2.42200   2.42786   2.43575
  Beta virt. eigenvalues --    2.44434   2.45547   2.48590   2.48718   2.50402
  Beta virt. eigenvalues --    2.51449   2.51948   2.52282   2.53939   2.55583
  Beta virt. eigenvalues --    2.57591   2.57664   2.57668   2.58946   2.60852
  Beta virt. eigenvalues --    2.61805   2.62945   2.66547   2.66953   2.68008
  Beta virt. eigenvalues --    2.68199   2.72599   2.75466   2.77248   2.78406
  Beta virt. eigenvalues --    2.82259   2.83207   2.85130   2.85244   2.87354
  Beta virt. eigenvalues --    2.88816   2.91178   2.92506   2.96415   2.96940
  Beta virt. eigenvalues --    2.98843   3.04426   3.09191   3.09829   3.13907
  Beta virt. eigenvalues --    3.15333   3.18860   3.19036   3.19626   3.20515
  Beta virt. eigenvalues --    3.23182   3.32351   3.34727   3.34777   3.47342
  Beta virt. eigenvalues --    3.48358   3.57552   3.57672   3.83632   3.84144
  Beta virt. eigenvalues --    4.04288   4.05871   4.12583   4.16195   4.16573
  Beta virt. eigenvalues --    4.21463   4.21689   4.24195   4.25630   4.26209
  Beta virt. eigenvalues --    4.30565   4.32500   4.36608   4.38636   4.39888
  Beta virt. eigenvalues --    4.42864   4.43126   4.48132   4.53480   4.54385
  Beta virt. eigenvalues --    4.59895   4.67089   4.67585   4.69036   4.91518
  Beta virt. eigenvalues --    4.99670
          Condensed to atoms (all electrons):
              1          2          3          4          5          6
     1  N    7.336685   0.318495   0.103258  -0.123888  -0.467686   0.101313
     2  C    0.318495   9.956729  -1.383795  -1.357644  -2.872860   0.042575
     3  C    0.103258  -1.383795   7.249198  -0.087207   0.218071  -0.117508
     4  C   -0.123888  -1.357644  -0.087207  10.631681  -0.290418   0.218064
     5  C   -0.467686  -2.872860   0.218071  -0.290418  10.631648  -0.087211
     6  C    0.101313   0.042575  -0.117508   0.218064  -0.087211   7.249195
     7  C    0.086381   1.645036   0.042563  -2.872880  -1.357628  -1.383787
     8  N    0.007447   0.086381   0.101312  -0.467688  -0.123888   0.103260
     9  O   -0.043732   0.185615   0.064188  -0.037025   0.061561   0.007781
    10  O   -0.007054  -0.038422   0.007782   0.061562  -0.037026   0.064188
    11  H    0.000186   0.007479  -0.003361  -0.010335   0.041710  -0.018600
    12  H    0.295839  -0.035731  -0.018599   0.041710  -0.010335  -0.003361
    13  C    0.018541  -0.045154  -0.055139  -0.123921   0.095100   0.229286
    14  C   -0.001662  -0.036136  -0.062125  -0.097361  -0.311880  -0.715606
    15  C    0.000070  -0.011601   0.000749   0.041845  -0.037212   0.004048
    16  H    0.000000   0.000019  -0.000002  -0.000172   0.000214  -0.003196
    17  C    0.000143   0.010773   0.000060  -0.087545   0.079200   0.021570
    18  H    0.000000   0.000081   0.000022  -0.000628   0.001089   0.008819
    19  C   -0.093766  -0.883223  -0.158873   1.142282   0.223629   0.291407
    20  C    0.000062   0.200302  -0.017517  -0.358026   0.217678  -0.146553
    21  H    0.000001   0.000442   0.000015   0.000123  -0.000175  -0.003374
    22  S    0.010380  -0.056413  -0.016426   0.066059  -0.179309  -0.131118
    23  N   -0.000581  -0.005119   0.006645   0.016303  -0.013417   0.030885
    24  N    0.000061   0.000591   0.000816   0.001027   0.011087   0.028775
    25  C    0.036776   0.138709  -0.715604  -0.311881  -0.097358  -0.062125
    26  C    0.051507   0.162222   0.229287   0.095098  -0.123926  -0.055138
    27  C   -0.053049  -0.020529   0.021567   0.079201  -0.087545   0.000060
    28  H   -0.002099  -0.000748   0.008818   0.001089  -0.000628   0.000022
    29  C    0.013801  -0.003615   0.004049  -0.037212   0.041845   0.000749
    30  H   -0.000033   0.000031  -0.003196   0.000214  -0.000172  -0.000002
    31  C   -0.032554   0.076673  -0.146560   0.217680  -0.358025  -0.017517
    32  H    0.000127  -0.000024  -0.003374  -0.000175   0.000123   0.000015
    33  C   -0.181949  -0.874252   0.291419   0.223631   1.142271  -0.158877
    34  S    0.015493   0.054596  -0.131116  -0.179310   0.066059  -0.016426
    35  N    0.002039   0.000340   0.028775   0.011087   0.001027   0.000816
    36  N    0.018854  -0.044345   0.030885  -0.013417   0.016303   0.006645
              7          8          9         10         11         12
     1  N    0.086381   0.007447  -0.043732  -0.007054   0.000186   0.295839
     2  C    1.645036   0.086381   0.185615  -0.038422   0.007479  -0.035731
     3  C    0.042563   0.101312   0.064188   0.007782  -0.003361  -0.018599
     4  C   -2.872880  -0.467688  -0.037025   0.061562  -0.010335   0.041710
     5  C   -1.357628  -0.123888   0.061561  -0.037026   0.041710  -0.010335
     6  C   -1.383787   0.103260   0.007781   0.064188  -0.018600  -0.003361
     7  C    9.956738   0.318495  -0.038421   0.185614  -0.035731   0.007479
     8  N    0.318495   7.336686  -0.007054  -0.043732   0.295839   0.000186
     9  O   -0.038421  -0.007054   8.259381   0.000106  -0.000003  -0.000830
    10  O    0.185614  -0.043732   0.000106   8.259381  -0.000830  -0.000003
    11  H   -0.035731   0.295839  -0.000003  -0.000830   0.335012   0.000000
    12  H    0.007479   0.000186  -0.000830  -0.000003   0.000000   0.335012
    13  C    0.162218   0.051507   0.009526  -0.008181   0.026355  -0.000048
    14  C    0.138710   0.036776  -0.016075  -0.000149   0.014494  -0.000012
    15  C   -0.003614   0.013801   0.000017   0.000139  -0.001406   0.000000
    16  H    0.000031  -0.000034   0.000000   0.000000  -0.000001   0.000000
    17  C   -0.020530  -0.053049   0.000170  -0.000406  -0.002366   0.000000
    18  H   -0.000748  -0.002099   0.000000  -0.000005  -0.000239   0.000000
    19  C   -0.874254  -0.181949  -0.010633   0.025743  -0.045896  -0.001379
    20  C    0.076673  -0.032554   0.020911  -0.000877   0.002995   0.000013
    21  H   -0.000024   0.000127  -0.000009   0.000000   0.000000   0.000000
    22  S    0.054596   0.015492  -0.021572  -0.001271  -0.005117   0.001102
    23  N   -0.044345   0.018854   0.000042  -0.000421   0.037809  -0.000001
    24  N    0.000340   0.002039   0.000005   0.000004   0.000069   0.000000
    25  C   -0.036137  -0.001662  -0.000149  -0.016075  -0.000012   0.014494
    26  C   -0.045149   0.018541  -0.008181   0.009526  -0.000048   0.026355
    27  C    0.010773   0.000143  -0.000406   0.000170   0.000000  -0.002366
    28  H    0.000081   0.000000  -0.000005   0.000000   0.000000  -0.000239
    29  C   -0.011601   0.000070   0.000139   0.000017   0.000000  -0.001406
    30  H    0.000019   0.000000   0.000000   0.000000   0.000000  -0.000001
    31  C    0.200303   0.000062  -0.000877   0.020911   0.000013   0.002995
    32  H    0.000442   0.000001   0.000000  -0.000009   0.000000   0.000000
    33  C   -0.883224  -0.093766   0.025743  -0.010633  -0.001379  -0.045896
    34  S   -0.056414   0.010380  -0.001271  -0.021572   0.001102  -0.005117
    35  N    0.000591   0.000061   0.000004   0.000005   0.000000   0.000069
    36  N   -0.005119  -0.000581  -0.000421   0.000042  -0.000001   0.037809
             13         14         15         16         17         18
     1  N    0.018541  -0.001662   0.000070   0.000000   0.000143   0.000000
     2  C   -0.045154  -0.036136  -0.011601   0.000019   0.010773   0.000081
     3  C   -0.055139  -0.062125   0.000749  -0.000002   0.000060   0.000022
     4  C   -0.123921  -0.097361   0.041845  -0.000172  -0.087545  -0.000628
     5  C    0.095100  -0.311880  -0.037212   0.000214   0.079200   0.001089
     6  C    0.229286  -0.715606   0.004048  -0.003196   0.021570   0.008819
     7  C    0.162218   0.138710  -0.003614   0.000031  -0.020530  -0.000748
     8  N    0.051507   0.036776   0.013801  -0.000034  -0.053049  -0.002099
     9  O    0.009526  -0.016075   0.000017   0.000000   0.000170   0.000000
    10  O   -0.008181  -0.000149   0.000139   0.000000  -0.000406  -0.000005
    11  H    0.026355   0.014494  -0.001406  -0.000001  -0.002366  -0.000239
    12  H   -0.000048  -0.000012   0.000000   0.000000   0.000000   0.000000
    13  C   11.101975  -3.145937   0.168366  -0.176353  -0.702248   0.050934
    14  C   -3.145937  12.867016   0.454821   0.179149  -0.248904  -0.052992
    15  C    0.168366   0.454821   5.409644   0.338437  -0.082692  -0.066395
    16  H   -0.176353   0.179149   0.338437   0.542163  -0.010865   0.000100
    17  C   -0.702248  -0.248904  -0.082692  -0.010865   5.930636   0.447125
    18  H    0.050934  -0.052992  -0.066395   0.000100   0.447125   0.536429
    19  C    0.617338  -1.462621  -0.161647  -0.004050   0.077880   0.007677
    20  C   -3.417970  -1.586052  -0.569792   0.059977   0.457830  -0.001260
    21  H   -0.016394   0.044772  -0.003838  -0.000005   0.001951   0.000000
    22  S   -0.021679   0.326217   0.017343  -0.001148   0.001363  -0.000840
    23  N    0.241857   0.015549   0.112386   0.010764   0.042941  -0.100160
    24  N    0.997568  -0.429848   0.425241  -0.102636  -0.107653   0.006740
    25  C   -0.001063   0.000073   0.000002   0.000000  -0.000035   0.000000
    26  C    0.000970  -0.001063  -0.000038   0.000000   0.000126   0.000000
    27  C    0.000126  -0.000035   0.000000   0.000000   0.000002   0.000000
    28  H    0.000000   0.000000   0.000000   0.000000   0.000000   0.000000
    29  C   -0.000038   0.000002   0.000000   0.000000   0.000000   0.000000
    30  H    0.000000   0.000000   0.000000   0.000000   0.000000   0.000000
    31  C    0.000898  -0.000103  -0.000001   0.000000   0.000004   0.000000
    32  H    0.000000   0.000000   0.000000   0.000000   0.000000   0.000000
    33  C   -0.037712   0.001704   0.000721   0.000000  -0.002226  -0.000002
    34  S   -0.000274   0.000366  -0.000008   0.000000  -0.000438   0.000000
    35  N    0.000003   0.000000   0.000000   0.000000   0.000000   0.000000
    36  N    0.000098  -0.000009   0.000000   0.000000   0.000002   0.000000
             19         20         21         22         23         24
     1  N   -0.093766   0.000062   0.000001   0.010380  -0.000581   0.000061
     2  C   -0.883223   0.200302   0.000442  -0.056413  -0.005119   0.000591
     3  C   -0.158873  -0.017517   0.000015  -0.016426   0.006645   0.000816
     4  C    1.142282  -0.358026   0.000123   0.066059   0.016303   0.001027
     5  C    0.223629   0.217678  -0.000175  -0.179309  -0.013417   0.011087
     6  C    0.291407  -0.146553  -0.003374  -0.131118   0.030885   0.028775
     7  C   -0.874254   0.076673  -0.000024   0.054596  -0.044345   0.000340
     8  N   -0.181949  -0.032554   0.000127   0.015492   0.018854   0.002039
     9  O   -0.010633   0.020911  -0.000009  -0.021572   0.000042   0.000005
    10  O    0.025743  -0.000877   0.000000  -0.001271  -0.000421   0.000004
    11  H   -0.045896   0.002995   0.000000  -0.005117   0.037809   0.000069
    12  H   -0.001379   0.000013   0.000000   0.001102  -0.000001   0.000000
    13  C    0.617338  -3.417970  -0.016394  -0.021679   0.241857   0.997568
    14  C   -1.462621  -1.586052   0.044772   0.326217   0.015549  -0.429848
    15  C   -0.161647  -0.569792  -0.003838   0.017343   0.112386   0.425241
    16  H   -0.004050   0.059977  -0.000005  -0.001148   0.010764  -0.102636
    17  C    0.077880   0.457830   0.001951   0.001363   0.042941  -0.107653
    18  H    0.007677  -0.001260   0.000000  -0.000840  -0.100160   0.006740
    19  C    7.943576  -0.134040   0.012091   0.067881  -0.152754   0.081415
    20  C   -0.134040  12.270182   0.282578  -0.323267   0.008668  -0.830375
    21  H    0.012091   0.282578   0.452951   0.014565  -0.000103  -0.001538
    22  S    0.067881  -0.323267   0.014565  15.833927   0.008134   0.039360
    23  N   -0.152754   0.008668  -0.000103   0.008134   6.985376  -0.040649
    24  N    0.081415  -0.830375  -0.001538   0.039360  -0.040649   7.095040
    25  C    0.001704  -0.000103   0.000000   0.000366  -0.000009   0.000000
    26  C   -0.037713   0.000898   0.000000  -0.000274   0.000098   0.000003
    27  C   -0.002226   0.000004   0.000000  -0.000438   0.000002   0.000000
    28  H   -0.000002   0.000000   0.000000   0.000000   0.000000   0.000000
    29  C    0.000721  -0.000001   0.000000  -0.000008   0.000000   0.000000
    30  H    0.000000   0.000000   0.000000   0.000000   0.000000   0.000000
    31  C   -0.012756   0.000064   0.000000  -0.000603  -0.000012   0.000000
    32  H    0.000001   0.000000   0.000000   0.000000   0.000000   0.000000
    33  C    0.231187  -0.012756   0.000001  -0.001795  -0.001114  -0.000015
    34  S   -0.001795  -0.000603   0.000000  -0.000076   0.000194   0.000008
    35  N   -0.000015   0.000000   0.000000   0.000008   0.000000   0.000000
    36  N   -0.001114  -0.000012   0.000000   0.000194   0.000002   0.000000
             25         26         27         28         29         30
     1  N    0.036776   0.051507  -0.053049  -0.002099   0.013801  -0.000033
     2  C    0.138709   0.162222  -0.020529  -0.000748  -0.003615   0.000031
     3  C   -0.715604   0.229287   0.021567   0.008818   0.004049  -0.003196
     4  C   -0.311881   0.095098   0.079201   0.001089  -0.037212   0.000214
     5  C   -0.097358  -0.123926  -0.087545  -0.000628   0.041845  -0.000172
     6  C   -0.062125  -0.055138   0.000060   0.000022   0.000749  -0.000002
     7  C   -0.036137  -0.045149   0.010773   0.000081  -0.011601   0.000019
     8  N   -0.001662   0.018541   0.000143   0.000000   0.000070   0.000000
     9  O   -0.000149  -0.008181  -0.000406  -0.000005   0.000139   0.000000
    10  O   -0.016075   0.009526   0.000170   0.000000   0.000017   0.000000
    11  H   -0.000012  -0.000048   0.000000   0.000000   0.000000   0.000000
    12  H    0.014494   0.026355  -0.002366  -0.000239  -0.001406  -0.000001
    13  C   -0.001063   0.000970   0.000126   0.000000  -0.000038   0.000000
    14  C    0.000073  -0.001063  -0.000035   0.000000   0.000002   0.000000
    15  C    0.000002  -0.000038   0.000000   0.000000   0.000000   0.000000
    16  H    0.000000   0.000000   0.000000   0.000000   0.000000   0.000000
    17  C   -0.000035   0.000126   0.000002   0.000000   0.000000   0.000000
    18  H    0.000000   0.000000   0.000000   0.000000   0.000000   0.000000
    19  C    0.001704  -0.037713  -0.002226  -0.000002   0.000721   0.000000
    20  C   -0.000103   0.000898   0.000004   0.000000  -0.000001   0.000000
    21  H    0.000000   0.000000   0.000000   0.000000   0.000000   0.000000
    22  S    0.000366  -0.000274  -0.000438   0.000000  -0.000008   0.000000
    23  N   -0.000009   0.000098   0.000002   0.000000   0.000000   0.000000
    24  N    0.000000   0.000003   0.000000   0.000000   0.000000   0.000000
    25  C   12.867007  -3.145927  -0.248903  -0.052992   0.454821   0.179149
    26  C   -3.145927  11.101950  -0.702248   0.050934   0.168367  -0.176354
    27  C   -0.248903  -0.702248   5.930634   0.447125  -0.082693  -0.010865
    28  H   -0.052992   0.050934   0.447125   0.536429  -0.066395   0.000100
    29  C    0.454821   0.168367  -0.082693  -0.066395   5.409644   0.338437
    30  H    0.179149  -0.176354  -0.010865   0.000100   0.338437   0.542163
    31  C   -1.586063  -3.417960   0.457832  -0.001260  -0.569793   0.059977
    32  H    0.044772  -0.016394   0.001951   0.000000  -0.003838  -0.000005
    33  C   -1.462621   0.617338   0.077880   0.007677  -0.161648  -0.004050
    34  S    0.326220  -0.021678   0.001363  -0.000840   0.017344  -0.001148
    35  N   -0.429847   0.997567  -0.107654   0.006740   0.425242  -0.102636
    36  N    0.015550   0.241856   0.042941  -0.100159   0.112386   0.010764
             31         32         33         34         35         36
     1  N   -0.032554   0.000127  -0.181949   0.015493   0.002039   0.018854
     2  C    0.076673  -0.000024  -0.874252   0.054596   0.000340  -0.044345
     3  C   -0.146560  -0.003374   0.291419  -0.131116   0.028775   0.030885
     4  C    0.217680  -0.000175   0.223631  -0.179310   0.011087  -0.013417
     5  C   -0.358025   0.000123   1.142271   0.066059   0.001027   0.016303
     6  C   -0.017517   0.000015  -0.158877  -0.016426   0.000816   0.006645
     7  C    0.200303   0.000442  -0.883224  -0.056414   0.000591  -0.005119
     8  N    0.000062   0.000001  -0.093766   0.010380   0.000061  -0.000581
     9  O   -0.000877   0.000000   0.025743  -0.001271   0.000004  -0.000421
    10  O    0.020911  -0.000009  -0.010633  -0.021572   0.000005   0.000042
    11  H    0.000013   0.000000  -0.001379   0.001102   0.000000  -0.000001
    12  H    0.002995   0.000000  -0.045896  -0.005117   0.000069   0.037809
    13  C    0.000898   0.000000  -0.037712  -0.000274   0.000003   0.000098
    14  C   -0.000103   0.000000   0.001704   0.000366   0.000000  -0.000009
    15  C   -0.000001   0.000000   0.000721  -0.000008   0.000000   0.000000
    16  H    0.000000   0.000000   0.000000   0.000000   0.000000   0.000000
    17  C    0.000004   0.000000  -0.002226  -0.000438   0.000000   0.000002
    18  H    0.000000   0.000000  -0.000002   0.000000   0.000000   0.000000
    19  C   -0.012756   0.000001   0.231187  -0.001795  -0.000015  -0.001114
    20  C    0.000064   0.000000  -0.012756  -0.000603   0.000000  -0.000012
    21  H    0.000000   0.000000   0.000001   0.000000   0.000000   0.000000
    22  S   -0.000603   0.000000  -0.001795  -0.000076   0.000008   0.000194
    23  N   -0.000012   0.000000  -0.001114   0.000194   0.000000   0.000002
    24  N    0.000000   0.000000  -0.000015   0.000008   0.000000   0.000000
    25  C   -1.586063   0.044772  -1.462621   0.326220  -0.429847   0.015550
    26  C   -3.417960  -0.016394   0.617338  -0.021678   0.997567   0.241856
    27  C    0.457832   0.001951   0.077880   0.001363  -0.107654   0.042941
    28  H   -0.001260   0.000000   0.007677  -0.000840   0.006740  -0.100159
    29  C   -0.569793  -0.003838  -0.161648   0.017344   0.425242   0.112386
    30  H    0.059977  -0.000005  -0.004050  -0.001148  -0.102636   0.010764
    31  C   12.270194   0.282577  -0.134047  -0.323273  -0.830375   0.008667
    32  H    0.282577   0.452951   0.012091   0.014565  -0.001538  -0.000103
    33  C   -0.134047   0.012091   7.943581   0.067881   0.081416  -0.152754
    34  S   -0.323273   0.014565   0.067881  15.833928   0.039360   0.008134
    35  N   -0.830375  -0.001538   0.081416   0.039360   7.095040  -0.040649
    36  N    0.008667  -0.000103  -0.152754   0.008134  -0.040649   6.985378
 Mulliken atomic charges:
              1
     1  N   -0.409406
     2  C    0.782523
     3  C    0.510927
     4  C   -0.391918
     5  C   -0.391913
     6  C    0.510929
     7  C    0.782524
     8  N   -0.409406
     9  O   -0.448525
    10  O   -0.448525
    11  H    0.362261
    12  H    0.362261
    13  C   -0.020552
    14  C    0.088922
    15  C   -0.049389
    16  H    0.167608
    17  C    0.247181
    18  H    0.166352
    19  C   -0.503827
    20  C   -0.167075
    21  H    0.215843
    22  S    0.304366
    23  N   -0.177823
    24  N   -0.177474
    25  C    0.088922
    26  C   -0.020551
    27  C    0.247181
    28  H    0.166352
    29  C   -0.049389
    30  H    0.167608
    31  C   -0.167073
    32  H    0.215843
    33  C   -0.503827
    34  S    0.304367
    35  N   -0.177474
    36  N   -0.177825
 Sum of Mulliken atomic charges =   1.00000
 Mulliken charges with hydrogens summed into heavy atoms:
              1
     1  N   -0.047145
     2  C    0.782523
     3  C    0.510927
     4  C   -0.391918
     5  C   -0.391913
     6  C    0.510929
     7  C    0.782524
     8  N   -0.047145
     9  O   -0.448525
    10  O   -0.448525
    13  C   -0.020552
    14  C    0.088922
    15  C    0.118219
    17  C    0.413533
    19  C   -0.503827
    20  C    0.048768
    22  S    0.304366
    23  N   -0.177823
    24  N   -0.177474
    25  C    0.088922
    26  C   -0.020551
    27  C    0.413533
    29  C    0.118219
    31  C    0.048770
    33  C   -0.503827
    34  S    0.304367
    35  N   -0.177474
    36  N   -0.177825
 Sum of Mulliken charges with hydrogens summed into heavy atoms =   1.00000
          Atomic-Atomic Spin Densities.
              1          2          3          4          5          6
     1  N   -0.006756   0.017097  -0.011655  -0.011858   0.006237  -0.001702
     2  C    0.017097  -0.084594   0.011882  -0.001462   0.046539   0.012404
     3  C   -0.011655   0.011882   0.044676   0.061223  -0.023157  -0.008722
     4  C   -0.011858  -0.001462   0.061223   0.212237  -0.107853  -0.023157
     5  C    0.006237   0.046539  -0.023157  -0.107853   0.212236   0.061223
     6  C   -0.001702   0.012404  -0.008722  -0.023157   0.061223   0.044677
     7  C    0.000436  -0.013792   0.012404   0.046539  -0.001462   0.011882
     8  N   -0.000336   0.000436  -0.001702   0.006237  -0.011858  -0.011655
     9  O   -0.002366  -0.011038   0.001495   0.004153  -0.016003  -0.001070
    10  O    0.000197  -0.000427  -0.001070  -0.016003   0.004153   0.001495
    11  H    0.000008  -0.000075  -0.000015   0.000612   0.000051  -0.001026
    12  H    0.000692  -0.000082  -0.001026   0.000051   0.000612  -0.000015
    13  C   -0.000295   0.001632   0.001943   0.000211  -0.001172   0.001734
    14  C    0.000026  -0.001829   0.000612  -0.000343   0.001608   0.006170
    15  C   -0.000002  -0.000046   0.000017  -0.000070   0.000009  -0.000589
    16  H    0.000000   0.000000   0.000000   0.000000  -0.000001  -0.000002
    17  C    0.000006   0.000108  -0.000080   0.000030   0.000278   0.000280
    18  H    0.000000  -0.000001   0.000000   0.000004  -0.000006  -0.000059
    19  C    0.000764   0.002547  -0.000480   0.001352  -0.017813  -0.025746
    20  C   -0.000032   0.001255  -0.000175  -0.000584   0.001697   0.001316
    21  H    0.000000  -0.000053   0.000000   0.000000   0.000043   0.000112
    22  S   -0.000370  -0.002383   0.000255   0.003259  -0.005755  -0.000907
    23  N    0.000030   0.000218  -0.000364  -0.000623   0.000993  -0.002864
    24  N   -0.000001   0.000008   0.000007   0.000059  -0.000080   0.000308
    25  C   -0.000944  -0.000516   0.006170   0.001608  -0.000343   0.000612
    26  C   -0.000709  -0.002220   0.001734  -0.001172   0.000211   0.001943
    27  C    0.000173   0.000059   0.000280   0.000278   0.000030  -0.000080
    28  H    0.000015  -0.000009  -0.000059  -0.000006   0.000004   0.000000
    29  C    0.000006   0.000024  -0.000589   0.000009  -0.000070   0.000017
    30  H   -0.000001   0.000000  -0.000002  -0.000001   0.000000   0.000000
    31  C   -0.000049  -0.000098   0.001316   0.001697  -0.000584  -0.000175
    32  H   -0.000004  -0.000002   0.000112   0.000043   0.000000   0.000000
    33  C    0.007439   0.003974  -0.025746  -0.017813   0.001352  -0.000480
    34  S   -0.000053   0.000467  -0.000907  -0.005755   0.003259   0.000255
    35  N   -0.000051  -0.000016   0.000308  -0.000080   0.000059   0.000007
    36  N    0.000650   0.001259  -0.002864   0.000993  -0.000623  -0.000364
              7          8          9         10         11         12
     1  N    0.000436  -0.000336  -0.002366   0.000197   0.000008   0.000692
     2  C   -0.013792   0.000436  -0.011038  -0.000427  -0.000075  -0.000082
     3  C    0.012404  -0.001702   0.001495  -0.001070  -0.000015  -0.001026
     4  C    0.046539   0.006237   0.004153  -0.016003   0.000612   0.000051
     5  C   -0.001462  -0.011858  -0.016003   0.004153   0.000051   0.000612
     6  C    0.011882  -0.011655  -0.001070   0.001495  -0.001026  -0.000015
     7  C   -0.084594   0.017098  -0.000427  -0.011038  -0.000082  -0.000075
     8  N    0.017098  -0.006756   0.000197  -0.002366   0.000692   0.000008
     9  O   -0.000427   0.000197   0.143276  -0.000019   0.000000  -0.000022
    10  O   -0.011038  -0.002366  -0.000019   0.143276  -0.000022   0.000000
    11  H   -0.000082   0.000692   0.000000  -0.000022  -0.000887   0.000000
    12  H   -0.000075   0.000008  -0.000022   0.000000   0.000000  -0.000887
    13  C   -0.002220  -0.000709  -0.000265  -0.000348   0.000140   0.000010
    14  C   -0.000516  -0.000944   0.000328  -0.000115  -0.000030   0.000000
    15  C    0.000024   0.000006   0.000005  -0.000002  -0.000014   0.000000
[...]
 -0.00023274,-0.00002995,-0.00004161,-0.00004877,-0.00020094,-0.0003105
 3,-0.00026582,-0.00004460,0.00016034,-0.00023625,-0.00002789,0.0001378
 1,-0.00018837,-0.07841329,0.01647297,-0.27404884,-0.02328189,-0.037184
 19,-0.02582283,-0.00607928,-0.01596230,-0.00190599,0.00027651,-0.00030
 726,-0.00043749,0.01036974,0.01169905,0.02576940,-0.00017845,0.0000943
 6,-0.00009181,0.20576049,0.06286300,0.57942341,-0.00069767,0.00031337,
 0.00042043,-0.00030587,0.00010888,0.00012623,0.00247766,-0.00116416,-0
 .00096339,0.00011441,0.00001574,-0.00020359,0.00007901,0.00011456,-0.0
 0006215,0.00001612,-0.00013482,0.00013005,0.00015858,0.00004906,0.0001
 7276,-0.00006463,-0.00005971,-0.00004102,0.00007401,-0.00002623,-0.000
 01596,-0.00015282,-0.00006721,-0.00010925,0.00000499,-0.00001121,0.000
 01256,0.00007106,0.00005563,-0.00006495,0.00000431,-0.00006431,0.00004
 386,0.00003006,0.00000266,0.00008275,0.00000166,-0.00001152,0.00000903
 ,0.00000037,0.00000124,-0.00000145,-0.00000117,-0.00001326,0.00000416,
 0.00000090,0.00000036,-0.00000084,0.00002058,0.00008505,0.00000776,0.0
 0000834,0.00007688,-0.00002946,-0.00000359,-0.00000558,-0.00000705,-0.
 00001582,-0.00004241,-0.00004634,-0.00000931,0.00002769,-0.00003314,-0
 .00000488,0.00002077,-0.00002554,0.00156882,-0.00550121,-0.00199053,0.
 00346791,-0.00056760,-0.00248446,-0.00031045,0.00008533,0.00022086,0.0
 0020780,-0.00004878,-0.00008277,-0.00068104,0.00022671,0.00027721,0.00
 026465,-0.00007617,-0.00010889,-0.09304343,-0.09739454,-0.09235536,0.0
 8945958,0.00026941,-0.00030979,0.00015502,0.00010531,0.00007107,-0.000
 11739,-0.00145945,-0.00008533,-0.00100897,-0.00007509,0.00018287,-0.00
 019323,0.00003224,0.00017657,-0.00001147,0.00001183,-0.00017015,0.0001
 8536,0.00013680,0.00021865,0.00023673,-0.00005759,-0.00013937,-0.00005
 585,-0.00005285,-0.00006859,-0.00000403,-0.00008813,-0.00023114,-0.000
 10865,-0.00000182,-0.00001201,0.00000872,-0.00002488,-0.00000115,0.000
 00187,-0.00000582,-0.00007302,0.00005477,0.00003984,0.00000021,0.00010
 194,0.00000049,-0.00001306,0.00001384,-0.00000038,0.00000148,-0.000001
 60,-0.00000527,-0.00001760,0.00000221,-0.00000052,0.00000015,-0.000000
 48,0.00003777,0.00009615,0.00000835,0.00001699,0.00009475,-0.00004101,
 -0.00000558,-0.00000676,-0.00000810,-0.00003820,-0.00004725,-0.0000465
 1,-0.00000386,0.00002917,-0.00003992,-0.00000361,0.00002525,-0.0000323
 0,0.00400734,0.01041321,0.00514130,-0.00071362,-0.00031002,0.00232188,
 0.00008765,0.00016979,-0.00027760,-0.00007943,-0.00001068,0.00001902,0
 .00011631,-0.00031167,-0.00016451,-0.00008312,0.00004201,0.00002798,-0
 .09822207,-0.18481409,-0.12241480,0.10323197,0.18770716,0.00045670,0.0
 0026340,0.00001277,0.00012956,-0.00010939,0.00004391,-0.00071500,-0.00
 023268,0.00154591,-0.00012667,0.00004931,-0.00018719,0.00000848,0.0002
 0734,-0.00008929,0.00000457,-0.00020225,0.00019516,0.00010170,0.000010
 47,0.00033324,-0.00004440,-0.00006434,-0.00009028,0.00000671,0.0000657
 5,0.00004950,-0.00009453,-0.00005985,-0.00028542,0.00000463,-0.0000158
 4,0.00002943,0.00000440,0.00021524,-0.00009550,-0.00000651,-0.00009989
 ,0.00007812,0.00005199,0.00000418,0.00012941,-0.00000088,-0.00001725,0
 .00001430,-0.00000018,0.00000251,-0.00000191,-0.00000248,-0.00001871,0
 .00001074,-0.00000015,0.00000173,-0.00000084,0.00004863,0.00013464,0.0
 0000259,0.00002162,0.00011615,-0.00004812,-0.00000700,-0.00000804,-0.0
 0001070,-0.00005015,-0.00005753,-0.00006696,-0.00000635,0.00004324,-0.
 00005944,-0.00000516,0.00003173,-0.00004210,-0.01011791,-0.01983358,-0
 .00549237,-0.00236040,0.00270729,-0.00391833,0.00021939,-0.00028146,0.
 00039376,-0.00005690,0.00009918,0.00002134,0.00036964,0.00012264,0.000
 00542,-0.00010373,0.00004665,0.00001954,-0.09163694,-0.12022886,-0.164
 06727,0.09616134,0.12717054,0.16307229,-0.00582377,-0.02321305,-0.0141
 3152,0.00250902,0.00536673,-0.00587703,-0.08460243,-0.08256582,-0.0297
 8523,0.00286262,-0.00943751,0.00435299,0.00446195,0.00255260,0.0015623
 4,0.00068472,-0.00074593,0.00002480,-0.00173878,-0.00051510,-0.0009545
 5,0.00039356,0.00057990,-0.00006530,-0.00029990,-0.00141283,0.00082451
 ,0.00098829,0.00082858,0.00080381,-0.00001732,0.00010517,-0.00004783,-
 0.00141930,-0.00106226,0.00133161,-0.00015438,0.00016333,0.00013248,-0
 .00000708,-0.00006978,-0.00045481,0.00004238,0.00014813,0.00002727,0.0
 0000038,-0.00000723,0.00001016,0.00000528,-0.00007799,0.00004269,-0.00
 000205,-0.00000410,-0.00000059,-0.00067618,0.00058646,0.00007274,-0.00
 008147,-0.00048758,0.00016784,0.00002017,0.00003735,0.00004832,0.00008
 394,0.00031548,-0.00008304,-0.00002147,-0.00005742,0.00000895,0.000026
 77,-0.00009296,0.00009231,0.00098751,-0.00914053,-0.00161544,-0.064502
 60,-0.01172805,-0.01410627,0.00654756,0.00067125,-0.00512007,0.0007442
 5,0.00023865,-0.00040435,-0.00151105,0.00003777,-0.00269096,-0.0009716
 9,0.00033113,0.00054533,-0.00063205,-0.02052441,-0.00784593,0.00164456
 ,-0.00002880,0.00046637,0.18917006,-0.01907424,-0.01934497,-0.02741351
 ,-0.00013063,0.01138475,-0.00753732,-0.08213766,-0.26968391,-0.0244231
 0,-0.01415235,-0.03979135,0.00060260,0.00515937,0.00656411,0.01048745,
 -0.00123155,-0.00195965,-0.00076504,-0.00354311,-0.00456021,-0.0064121
 4,0.00100764,0.00172359,0.00137480,0.00080927,-0.00077546,0.00265537,0
 .00259543,0.00444916,0.00333424,0.00000176,0.00023012,-0.00022587,-0.0
 0022237,-0.00451750,0.00191359,0.00014817,0.00023693,-0.00003190,-0.00
 052364,-0.00004926,-0.00114468,0.00013343,0.00038121,0.00001458,0.0000
 0398,-0.00002407,0.00002899,-0.00002960,-0.00017985,0.00008288,-0.0000
 0500,-0.00001894,0.00000335,0.00059220,0.00078173,0.00010265,-0.000219
 98,-0.00124692,0.00048685,0.00008289,0.00009459,0.00013270,0.00023956,
 0.00085560,-0.00008832,-0.00003886,-0.00023242,0.00009092,0.00002543,-
 0.00031520,0.00035633,-0.02061799,-0.03902513,-0.01688961,-0.01904148,
 -0.19530915,0.06958559,0.00259894,0.02611916,-0.00842746,-0.00006539,0
 .00059513,0.00002140,-0.00731619,-0.00898185,-0.01196976,0.00040329,-0
 .00016600,0.00010002,-0.01916889,-0.03860582,-0.00972956,0.00045614,-0
 .00261062,0.00469152,0.16139367,0.64081869,-0.01767369,-0.03821847,-0.
 00648660,-0.00116872,0.00689620,-0.00599270,-0.03020699,-0.02566281,-0
 .10353443,0.00842355,0.01301879,0.01521879,-0.00065190,0.00367555,-0.0
 0183880,0.00043698,0.00050296,0.00163696,0.00163290,0.00153830,0.00177
 360,-0.00043108,0.00025091,-0.00112326,-0.00107530,-0.00316690,-0.0002
 5098,-0.00070548,-0.00128499,-0.00033788,0.00004184,0.00005114,0.00003
 341,0.00061795,-0.00023663,0.00022253,0.00014541,0.00000158,0.00012206
 ,-0.00007487,0.00002417,-0.00002881,0.00003850,0.00004992,0.00004390,0
 .00000091,-0.00000013,0.00000115,0.00000243,-0.00004272,0.00005779,0.0
 0000050,0.00000516,-0.00000406,0.00007286,0.00010930,-0.00079617,-0.00
 005851,-0.00021297,0.00004242,0.00000814,0.00000860,0.00000306,-0.0000
 1835,0.00011598,-0.00013332,-0.00000735,0.00004720,-0.00006540,-0.0000
 0887,0.00004239,-0.00004066,0.00820111,0.01324724,0.01478410,-0.007859
 33,0.08868709,-0.15155320,-0.00677339,-0.01350402,0.00203376,-0.000143
 98,0.00081935,-0.00026084,0.00360475,0.00736369,0.00267171,0.00048397,
 -0.00008866,0.00005893,-0.00890636,-0.01317070,-0.00323509,0.00004803,
 0.00342331,-0.00130092,0.11016507,-0.04314418,0.42053235,0.00380563,-0
 .00133896,0.00130772,0.00143650,-0.00027000,-0.00007445,-0.01207216,-0
 .00832319,-0.00908722,-0.00040803,0.00255988,-0.00078988,-0.00081251,0
 .00040922,-0.00087359,0.00026479,-0.00044345,0.00088431,0.00164331,0.0
 0044964,0.00251576,-0.00004488,-0.00084075,-0.00083970,-0.00058240,-0.
 00023649,-0.00021655,-0.00216146,-0.00193707,-0.00088328,0.00005840,-0
 .00005320,0.00009021,-0.00005725,0.00067815,-0.00015994,-0.00003866,-0
 .00026729,0.00020236,0.00020524,-0.00000034,0.00049060,-0.00001489,-0.
 00008861,0.00004195,0.00000071,0.00000872,-0.00000917,0.00000146,-0.00
 003696,-0.00000304,0.00000467,0.00000506,-0.00000337,0.00008405,0.0002
 3915,-0.00001819,0.00009710,0.00054491,-0.00020177,-0.00001569,-0.0000
 3792,-0.00004986,-0.00018336,-0.00028527,-0.00018387,-0.00003185,0.000
 14185,-0.00014688,-0.00001877,0.00012533,-0.00014829,0.00934607,-0.004
 07329,0.00200520,-0.00095775,0.00322770,-0.01936568,-0.00043012,0.0006
 2401,-0.00170773,-0.00043707,0.00026837,0.00022994,-0.00075554,-0.0009
 5013,0.00104353,-0.00061028,0.00025851,0.00016304,-0.04181720,-0.03798
 155,0.00485165,-0.00263955,-0.00778356,0.00653374,-0.04937013,-0.00306
 812,-0.04946725,0.08576294,-0.00301302,-0.00622090,0.00063491,0.000101
 78,0.00366902,-0.00156829,-0.00900489,-0.00430237,-0.02500765,0.000123
 39,0.00200339,-0.00218218,0.00052845,0.00134414,-0.00028351,-0.0000371
 1,-0.00070803,0.00056519,-0.00056582,-0.00261697,0.00122012,0.00001651
 ,0.00004649,0.00047870,-0.00064874,-0.00177143,-0.00053803,-0.00047437
 ,-0.00221416,-0.00035270,0.00001908,-0.00005422,0.00013192,-0.00006190
 ,-0.00066377,0.00022084,-0.00000484,-0.00057570,0.00045594,0.00028881,
 -0.00003734,0.00081411,0.00002358,-0.00006874,0.00012206,0.00000047,0.
 00001386,-0.00000960,-0.00004374,-0.00015346,0.00002654,-0.00000176,0.
 00000323,-0.00000376,0.00031830,0.00085136,0.00011548,0.00017340,0.000
 89280,-0.00031219,-0.00004313,-0.00004762,-0.00005810,-0.00028454,-0.0
 0032032,-0.00049181,-0.00003953,0.00022963,-0.00031984,-0.00002528,0.0
 0019759,-0.00023856,0.00476867,-0.03219087,0.04850402,-0.00159970,-0.0
 0438663,0.00409403,-0.00298679,-0.00720566,-0.00167596,0.00014310,-0.0
 0014864,-0.00001894,0.00475712,0.00229943,0.00981680,0.00030225,0.0001
 7860,-0.00000561,-0.02975725,-0.19030230,0.05789045,0.00003536,-0.0107
 4656,0.00705417,-0.01904225,-0.05197362,-0.03107306,0.05954588,0.29305
 694,0.00273994,0.00501328,0.00662970,-0.00038841,-0.00251149,0.0026782
 6,-0.00849933,-0.02322000,-0.00831311,0.00127500,0.00426499,-0.0011848
 5,-0.00097352,-0.00059181,-0.00265357,0.00054021,-0.00049348,0.0019121
 9,0.00339234,0.00388636,0.00608112,-0.00157361,-0.00177425,-0.00205850
 ,0.00013476,0.00053105,-0.00052364,-0.00213370,-0.00422442,-0.00320954
 ,0.00002832,-0.00005775,0.00016610,0.00047411,0.00215721,-0.00082433,-
 0.00002400,-0.00023153,0.00011066,0.00024383,0.00004816,0.00060712,-0.
 00005541,-0.00017648,0.00000422,-0.00000216,0.00001220,-0.00001451,0.0
 0000286,0.00004679,-0.00001666,0.00000294,0.00001414,-0.00000109,-0.00
 008726,-0.00009220,-0.00013142,0.00011706,0.00066785,-0.00026403,-0.00
 004523,-0.00004565,-0.00006594,-0.00018423,-0.00049524,-0.00008248,0.0
 0000905,0.00015794,-0.00013358,-0.00001894,0.00015617,-0.00018750,-0.0
 0558993,0.02532667,-0.02635340,-0.01526278,0.01680515,-0.04903864,0.00
 138242,0.00782003,-0.00303610,0.00033770,0.00030824,0.00000918,-0.0038
 4017,-0.00518784,-0.00649508,0.00012594,-0.00012024,-0.00032247,-0.002
 21620,0.03613051,-0.06794101,-0.00013977,-0.01347898,0.00853857,-0.035
 73093,0.01096397,-0.13296129,0.06727124,-0.05919035,0.26805449,0.00045
 249,-0.00006469,0.00041672,-0.00005502,0.00013538,0.00002905,0.0005268
 3,-0.00153324,-0.00022210,-0.00070310,-0.00005202,0.00003873,-0.000022
 43,-0.00006964,0.00012051,0.00004209,-0.00012469,0.00014490,0.00012296
 ,0.00019790,0.00003280,-0.00005793,-0.00012265,-0.00008718,0.00004219,
 -0.00001372,0.00004028,-0.00017185,-0.00005129,-0.00005369,-0.00000267
 ,-0.00000900,0.00000868,-0.00018564,0.00038172,-0.00002312,-0.00000984
 ,-0.00004466,0.00002950,0.00002253,0.00000113,0.00006565,-0.00000131,-
 0.00000589,0.00000937,-0.00000070,0.00000092,-0.00000089,-0.00000335,-
 0.00000812,0.00000077,0.00000003,0.00000105,0.00000015,0.00002507,0.00
 002312,-0.00000915,0.00000712,0.00004765,-0.00002815,-0.00000492,-0.00
 000345,-0.00000487,-0.00001831,-0.00002629,-0.00001849,0.00000097,0.00
 001539,-0.00002478,-0.00000057,0.00001572,-0.00002444,-0.07215065,-0.0
 3380736,-0.00105849,0.01759872,-0.01444922,0.01184510,0.01058911,-0.02
 578838,-0.02985266,0.00095816,-0.00359708,-0.00170060,-0.10708959,-0.0
 1624644,-0.12277018,-0.00465069,0.00499113,0.00047297,-0.00178493,0.01
 464058,-0.00566663,-0.00182782,0.00029362,0.00168856,0.00126449,-0.000
 47490,-0.00372273,0.00528815,-0.00185864,-0.00289095,0.16524709,-0.000
 09851,0.00020574,-0.00016475,0.00012672,0.00028155,-0.00000730,0.00110
 691,0.00111272,0.00289950,0.00006630,-0.00101874,0.00045063,-0.0000359
 6,-0.00071282,0.00048159,-0.00014362,0.00067634,-0.00093405,-0.0010607
 2,-0.00114918,-0.00176047,0.00041259,0.00050392,0.00066632,-0.00005775
 ,-0.00009651,-0.00004193,0.00080306,0.00108215,0.00106636,-0.00001327,
 0.00004216,-0.00007485,0.00023048,0.00045258,-0.00004138,0.00000915,0.
 00026442,-0.00020213,-0.00014700,-0.00002464,-0.00036627,0.00000901,0.
 00006154,-0.00003061,0.00000076,-0.00000637,0.00000687,0.00000383,0.00
 003460,-0.00002164,-0.00000071,-0.00000607,0.00000272,-0.00009418,-0.0
 0031831,0.00004062,-0.00004874,-0.00031346,0.00013804,0.00002068,0.000
 02526,0.00003166,0.00012485,0.00019657,0.00015774,0.00001998,-0.000118
 60,0.00015815,0.00001527,-0.00009094,0.00012210,-0.04319476,-0.2641110
 0,0.06033941,-0.02220586,-0.04815044,-0.00195230,-0.00615986,0.0414943
 9,-0.02575972,-0.00291295,-0.00434076,-0.00156438,-0.02382783,-0.11906
 228,-0.00798866,0.01436261,0.00766597,0.02568678,0.01171167,-0.0132341
 7,0.03831790,0.00079273,0.00009455,-0.00018730,-0.00556463,-0.00761369
 ,-0.00567482,0.00020895,0.01220435,-0.00390977,0.06473960,0.40717828,0
 .00044813,-0.00007522,0.00155162,0.00003702,0.00001491,-0.00003117,-0.
 00248239,-0.00403837,-0.00195017,-0.00006512,0.00014018,-0.00098548,0.
 00008978,0.00039048,-0.00013907,0.00016050,-0.00088458,0.00120655,0.00
 111159,0.00154144,0.00163687,-0.00054580,-0.00074001,-0.00078439,0.000
 07945,0.00007522,0.00017561,-0.00078540,-0.00117852,-0.00118570,0.0000
 1239,-0.00006253,0.00008408,0.00010812,0.00035943,-0.00032547,-0.00001
 814,-0.00034710,0.00024344,0.00019312,0.00001986,0.00048584,-0.0000031
 6,-0.00006966,0.00005024,-0.00000065,0.00000759,-0.00000910,-0.0000088
 1,-0.00005159,0.00002009,0.00000151,0.00000732,-0.00000315,0.00009107,
 0.00035193,-0.00003928,0.00005475,0.00039443,-0.00018878,-0.00002534,-
 0.00003194,-0.00004173,-0.00014782,-0.00024079,-0.00018621,-0.00002879
 ,0.00014702,-0.00019601,-0.00002460,0.00012210,-0.00016743,0.00699250,
 0.08499253,-0.11516847,0.01849202,0.01842235,0.05060221,-0.04664107,-0
 .07729835,-0.02604589,-0.00228739,-0.00336341,-0.00035085,-0.11629945,
 0.01197852,-0.37094729,-0.00753543,0.00102891,-0.02716853,-0.00316264,
 0.04600507,-0.05203492,0.00125977,-0.00149722,0.00202048,0.00062667,0.
 00768580,-0.00209910,-0.00465762,-0.00933627,0.00274742,0.15753681,-0.
 10590286,0.58882891,0.00216223,-0.00188350,0.00151056,0.00079766,-0.00
 028449,0.00052582,-0.00362285,-0.00384438,-0.00161442,0.00039823,0.000
 61438,-0.00003512,-0.00064992,-0.00038415,0.00007198,0.00014398,0.0000
 4032,0.00014359,0.00020062,0.00034786,0.00025675,-0.00011001,-0.000199
 17,-0.00009375,0.00009861,0.00000255,-0.00005992,-0.00013578,-0.000268
 91,-0.00019241,-0.00000322,0.00000092,0.00001479,-0.00388369,0.0016474
 0,0.00041900,-0.00001454,-0.00002491,0.00000815,0.00001919,0.00000369,
 0.00008684,-0.00000288,-0.00001457,0.00000777,-0.00000132,0.00000125,-
 0.00000123,-0.00000468,0.00000236,-0.00000806,-0.00000112,0.00000193,0
 .00000084,-0.00002183,-0.00003883,-0.00000697,0.00002565,0.00007931,-0
 .00004314,-0.00000921,-0.00000373,-0.00000630,-0.00003187,-0.00003971,
 0.00000817,0.00000347,0.00001214,-0.00001089,0.00000078,0.00001933,-0.
 00002914,0.00560920,-0.01369711,-0.02232411,-0.09946354,-0.02881387,-0
 .08206681,-0.07365983,-0.04778538,-0.00443514,-0.00142575,0.01267137,-
 0.00103913,0.02686993,-0.01557889,0.00943509,0.00171534,-0.00319639,-0
 .00257774,-0.00015209,-0.00402977,-0.00239069,0.00008268,0.00034609,-0
 .00094270,-0.00060587,0.01541078,-0.00497074,0.00546054,-0.00165285,0.
 00157883,-0.01344671,0.01080118,-0.00257557,0.15365862,-0.00390413,-0.
 01010789,0.00031117,0.00126440,0.00218384,0.00202923,0.00136274,0.0064
 0214,-0.00339943,-0.00029043,-0.00247827,0.00154384,0.00041289,-0.0008
 1869,0.00130708,0.00006580,0.00071770,-0.00037557,-0.00102176,-0.00105
 333,-0.00178183,0.00033786,0.00012448,0.00077139,-0.00033469,-0.000411
 28,-0.00041858,0.00070137,0.00100654,0.00099944,0.00000270,0.00010175,
 -0.00008767,0.00191122,0.00005648,0.00116105,0.00002190,0.00028061,-0.
 00019766,-0.00017116,-0.00002982,-0.00043478,0.00001624,0.00008372,-0.
 00003181,0.00000099,-0.00000861,0.00000874,-0.00000294,0.00002400,-0.0
 0002937,0.00000065,-0.00000466,0.00000482,-0.00005358,-0.00022727,0.00
 004855,-0.00005232,-0.00032991,0.00016120,0.00002709,0.00002841,0.0000
 4229,0.00014204,0.00023294,0.00015536,0.00001110,-0.00014752,0.0001592
 9,0.00001593,-0.00011850,0.00014783,-0.00493730,0.03447688,-0.02655195
 ,-0.02273123,-0.10647760,-0.01912057,-0.03910899,-0.33425908,0.1348840
 8,0.00305093,-0.00545744,0.00821379,-0.03405505,-0.06221396,-0.0119889
 9,-0.00378432,-0.00401805,-0.00331120,-0.00213354,-0.00579695,0.001112
 71,-0.00051142,0.00065583,-0.00162075,0.01242202,-0.00724923,0.0356022
 6,-0.00127919,-0.00028149,0.00149081,0.01286646,-0.01320916,0.03143329
 ,0.07973775,0.50832339,0.00323175,0.00557416,0.00589079,-0.00078811,-0
 .00201953,0.00034958,-0.00606453,-0.01707786,-0.00305040,0.00073659,0.
 00391718,-0.00121305,-0.00061675,-0.00077769,-0.00149046,0.00011987,-0
 .00045020,0.00077473,0.00143886,0.00180889,0.00220657,-0.00055372,-0.0
 0063934,-0.00091525,0.00022223,0.00045639,0.00031134,-0.00102791,-0.00
 154878,-0.00134512,0.00001329,-0.00009140,0.00010450,0.00014334,0.0003
 8092,-0.00442861,-0.00003189,-0.00031704,0.00018420,0.00023949,0.00002
 025,0.00059014,-0.00001856,-0.00011062,0.00004599,-0.00000106,0.000009
 68,-0.00001211,-0.00000367,-0.00001571,0.00000150,0.00000193,0.0000072
 4,-0.00000411,0.00000678,0.00009482,-0.00006745,0.00006734,0.00050252,
 -0.00023681,-0.00003241,-0.00003894,-0.00005844,-0.00014708,-0.0003199
 8,-0.00013542,-0.00001045,0.00016074,-0.00016197,-0.00002601,0.0001583
 4,-0.00019829,-0.02981704,-0.04960573,-0.01736638,-0.08722039,-0.03508
 668,-0.25817885,-0.01185939,0.11218646,-0.18347872,0.00720215,0.033521
 27,-0.01491662,0.02518342,0.03651621,0.06337390,-0.00207505,-0.0017647
 7,-0.00020124,-0.00400023,-0.00386938,-0.00514831,-0.00021086,0.000629
 80,-0.00075982,-0.00239243,0.04348686,-0.04719303,0.00125611,0.0005211
 3,0.00827371,-0.00432143,0.02601882,-0.04960519,0.11135584,-0.15223805
 ,0.50805871||-0.00000054,0.00000068,-0.00000194,-0.00000081,-0.0000032
 5,0.00000140,0.00000151,0.00000059,0.00000032,-0.00000025,-0.00000026,
 -0.00000179,0.00000104,0.,0.00000148,-0.00000120,-0.00000069,-0.000000
 43,-0.00000207,0.00000420,-0.00000030,0.00000131,-0.00000093,0.0000016
 5,0.00000042,0.00000070,-0.00000051,0.00000048,-0.00000100,0.00000017,
 0.00000038,0.00000055,-0.00000069,-0.00000017,-0.00000062,0.00000061,-
 0.00000085,-0.00000096,-0.00000199,0.00000021,0.00000149,-0.00000280,0
 .00000050,-0.00000026,0.00000003,0.00000015,-0.00000002,0.00000093,0.0
 0000032,0.00000095,0.00000080,0.00000014,-0.00000014,0.00000061,-0.000
 00013,0.00000135,-0.00000089,0.00000031,0.00000060,0.00000204,0.000000
 30,-0.00000029,0.00000035,0.00000108,0.00000003,-0.00000027,0.00000040
 ,-0.00000012,0.00000203,0.00000092,-0.00000146,0.00000288,-0.00000021,
 -0.00000149,0.00000280,0.00000079,0.00000097,0.00000202,-0.00000032,-0
 .00000095,-0.00000080,-0.00000013,0.00000014,-0.00000062,-0.00000049,0
 .00000025,-0.00000004,-0.00000016,0.00000002,-0.00000093,-0.00000022,-
 0.00000062,-0.00000207,-0.00000028,0.00000029,-0.00000035,0.00000022,-
 0.00000138,0.00000085,-0.00000122,0.,0.00000032,-0.00000093,0.00000146
 ,-0.00000288,-0.00000051,0.00000016,-0.00000199|||@


    THE DOUGHNUT CREED
 AS YOU RAMBLE ON THROUGH LIFE, BROTHER
 WHATEVER BE YOUR GOAL
 KEEP YOUR EYE UPON THE DOUGHNUT
 AND NOT UPON THE HOLE.
 Job cpu time:  0 days 15 hours 33 minutes 23.0 seconds.
 File lengths (MBytes):  RWF=   2406 Int=      0 D2E=      0 Chk=     29 Scr=      1
 Normal termination of Gaussian 09 at Tue Nov 07 12:34:08 2023.
