 Entering Gaussian System, Link 0=g09
 Initial command:
 /apps/software//g09/l1.exe /scratch/nathalia.rosa/82508.cluster.abaxnet/Gau-18089.inp -scrdir=/scratch/nathalia.rosa/82508.cluster.abaxnet/
 Entering Link 1 = /apps/software//g09/l1.exe PID=     18090.
  
 Copyright (c) 1988,1990,1992,1993,1995,1998,2003,2009, Gaussian, Inc.
                  All Rights Reserved.
  
 This is part of the Gaussian(R) 09 program.  It is based on
 the Gaussian(R) 03 system (copyright 2003, Gaussian, Inc.),
 the Gaussian(R) 98 system (copyright 1998, Gaussian, Inc.),
 the Gaussian(R) 94 system (copyright 1995, Gaussian, Inc.),
 the Gaussian 92(TM) system (copyright 1992, Gaussian, Inc.),
 the Gaussian 90(TM) system (copyright 1990, Gaussian, Inc.),
 the Gaussian 88(TM) system (copyright 1988, Gaussian, Inc.),
 the Gaussian 86(TM) system (copyright 1986, Carnegie Mellon
 University), and the Gaussian 82(TM) system (copyright 1983,
 Carnegie Mellon University). Gaussian is a federally registered
 trademark of Gaussian, Inc.
  
 This software contains proprietary and confidential information,
 including trade secrets, belonging to Gaussian, Inc.
  
 This software is provided under written license and may be
 used, copied, transmitted, or stored only in accord with that
 written license.
  
 The following legend is applicable only to US Government
 contracts under FAR:
  
                    RESTRICTED RIGHTS LEGEND
  
 Use, reproduction and disclosure by the US Government is
 subject to restrictions as set forth in subparagraphs (a)
 and (c) of the Commercial Computer Software - Restricted
 Rights clause in FAR 52.227-19.
  
 Gaussian, Inc.
 340 Quinnipiac St., Bldg. 40, Wallingford CT 06492
  
  
 ---------------------------------------------------------------
 Warning -- This program may not be used in any manner that
 competes with the business of Gaussian, Inc. or will provide
 assistance to any competitor of Gaussian, Inc.  The licensee
 of this program is prohibited from giving any competitor of
 Gaussian, Inc. access to this program.  By using this program,
 the user acknowledges that Gaussian, Inc. is engaged in the
 business of creating and licensing software in the field of
 computational chemistry and represents and warrants to the
 licensee that it is not a competitor of Gaussian, Inc. and that
 it will not use this program in any manner prohibited above.
 ---------------------------------------------------------------
  

 Cite this work as:
 Gaussian 09, Revision A.02,
 M. J. Frisch, G. W. Trucks, H. B. Schlegel, G. E. Scuseria, 
 M. A. Robb, J. R. Cheeseman, G. Scalmani, V. Barone, B. Mennucci, 
 G. A. Petersson, H. Nakatsuji, M. Caricato, X. Li, H. P. Hratchian, 
 A. F. Izmaylov, J. Bloino, G. Zheng, J. L. Sonnenberg, M. Hada, 
 M. Ehara, K. Toyota, R. Fukuda, J. Hasegawa, M. Ishida, T. Nakajima, 
 Y. Honda, O. Kitao, H. Nakai, T. Vreven, J. A. Montgomery, Jr., 
 J. E. Peralta, F. Ogliaro, M. Bearpark, J. J. Heyd, E. Brothers, 
 K. N. Kudin, V. N. Staroverov, R. Kobayashi, J. Normand, 
 K. Raghavachari, A. Rendell, J. C. Burant, S. S. Iyengar, J. Tomasi, 
 M. Cossi, N. Rega, J. M. Millam, M. Klene, J. E. Knox, J. B. Cross, 
 V. Bakken, C. Adamo, J. Jaramillo, R. Gomperts, R. E. Stratmann, 
 O. Yazyev, A. J. Austin, R. Cammi, C. Pomelli, J. W. Ochterski, 
 R. L. Martin, K. Morokuma, V. G. Zakrzewski, G. A. Voth, 
 P. Salvador, J. J. Dannenberg, S. Dapprich, A. D. Daniels, 
 O. Farkas, J. B. Foresman, J. V. Ortiz, J. Cioslowski, 
 and D. J. Fox, Gaussian, Inc., Wallingford CT, 2009.
 
 ******************************************
 Gaussian 09:  EM64L-G09RevA.02 11-Jun-2009
                 5-Sep-2023 
 ******************************************
 %chk=/home/nathalia.rosa/DPP-SUB/DPP-SUB-10/DPP-SUB-10-OPT-FREQ.chk
 -----------------------------------------------------------
 # opt=tight freq b3lyp/6-31+g(d,p) nosymm geom=connectivity
 -----------------------------------------------------------
 1/7=10,14=-1,18=20,19=15,26=3,38=1,57=2/1,3;
 2/9=110,12=2,15=1,17=6,18=5,40=1/2;
 3/5=1,6=6,7=111,11=2,16=1,25=1,30=1,71=1,74=-5/1,2,3;
 4//1;
 5/5=2,38=5/2;
 6/7=2,8=2,9=2,10=2,28=1/1;
 7/30=1/1,2,3,16;
 1/7=10,14=-1,18=20,19=15/3(2);
 2/9=110,15=1/2;
 99//99;
 2/9=110,15=1/2;
 3/5=1,6=6,7=111,11=2,16=1,25=1,30=1,71=1,74=-5/1,2,3;
 4/5=5,16=3/1;
 5/5=2,38=5/2;
 7/30=1/1,2,3,16;
 1/7=10,14=-1,18=20,19=15/3(-5);
 2/9=110,15=1/2;
 6/7=2,8=2,9=2,10=2,19=2,28=1/1;
 99/9=1/99;
 -------
 Energy:
 -------
 Symbolic Z-matrix:
 Charge =  0 Multiplicity = 1
 N                     0.59986  -1.38475   2.398 
 C                     0.97639  -0.01521   2.44374 
 C                    -0.03793  -1.7246    1.20066 
 C                    -0.03579  -0.59015   0.40467 
 C                     0.57618   0.47141   1.13604 
 C                     0.68984   1.58333   0.30794 
 C                    -0.27936  -0.12396  -0.96868 
 N                     0.1607    1.22874  -0.92267 
 O                     1.50565   0.52747   3.40983 
 O                    -0.70453  -0.66442  -1.9765 
 H                     0.13813   1.86119  -1.71534 
 H                     0.59348  -1.9513    3.23506 
 C                     1.32422   3.95197  -0.37332 
 C                     1.93583   5.12907   0.19478 
 C                     1.68869   6.21127  -1.77501 
 H                     1.81066   7.09999  -2.39087 
 C                     1.08058   5.04207  -2.34403 
 H                     0.75102   5.05871  -3.38057 
 C                     1.23419   2.88405   0.54078 
 C                     2.29985   4.94325   1.52314 
 H                     2.77404   5.65992   2.17913 
 S                     1.90986   3.37147   2.07392 
 N                     0.89536   3.92808  -1.66846 
 N                     2.11337   6.27206  -0.53424 
 C                    -1.12575  -5.33007   1.22219 
 C                    -0.48476  -4.16867   1.7966 
 C                     0.0532   -5.37171   3.62657 
 H                     0.54074  -5.45575   4.59584 
 C                    -0.63614  -6.51339   3.08241 
 H                    -0.68007  -7.43358   3.66229 
 C                    -1.61575  -5.09719  -0.05422 
 H                    -2.13322  -5.79004  -0.70247 
 C                    -0.52688  -3.04933   0.95218 
 S                    -1.32322  -3.47863  -0.53967 
 N                    -1.20272  -6.51836   1.90052 
 N                     0.14486  -4.22147   3.00421 
 

 GradGradGradGradGradGradGradGradGradGradGradGradGradGradGradGradGradGrad
 Berny optimization.
 Initialization pass.
                           ----------------------------
                           !    Initial Parameters    !
                           ! (Angstroms and Degrees)  !
 --------------------------                            --------------------------
 ! Name  Definition              Value          Derivative Info.                !
 --------------------------------------------------------------------------------
 ! R1    R(1,2)                  1.4211         estimate D2E/DX2                !
 ! R2    R(1,3)                  1.3985         estimate D2E/DX2                !
 ! R3    R(1,12)                 1.0108         estimate D2E/DX2                !
 ! R4    R(2,5)                  1.4516         estimate D2E/DX2                !
 ! R5    R(2,9)                  1.228          estimate D2E/DX2                !
 ! R6    R(3,4)                  1.3859         estimate D2E/DX2                !
 ! R7    R(3,33)                 1.4338         estimate D2E/DX2                !
 ! R8    R(4,5)                  1.427          estimate D2E/DX2                !
 ! R9    R(4,7)                  1.4706         estimate D2E/DX2                !
 ! R10   R(5,6)                  1.3911         estimate D2E/DX2                !
 ! R11   R(6,8)                  1.3857         estimate D2E/DX2                !
 ! R12   R(6,19)                 1.4291         estimate D2E/DX2                !
 ! R13   R(7,8)                  1.4232         estimate D2E/DX2                !
 ! R14   R(7,10)                 1.2201         estimate D2E/DX2                !
 ! R15   R(8,11)                 1.0143         estimate D2E/DX2                !
 ! R16   R(13,14)                1.443          estimate D2E/DX2                !
 ! R17   R(13,19)                1.4086         estimate D2E/DX2                !
 ! R18   R(13,23)                1.3645         estimate D2E/DX2                !
 ! R19   R(14,20)                1.3898         estimate D2E/DX2                !
 ! R20   R(14,24)                1.3673         estimate D2E/DX2                !
 ! R21   R(15,16)                1.0881         estimate D2E/DX2                !
 ! R22   R(15,17)                1.4355         estimate D2E/DX2                !
 ! R23   R(15,24)                1.3128         estimate D2E/DX2                !
 ! R24   R(17,18)                1.0878         estimate D2E/DX2                !
 ! R25   R(17,23)                1.3159         estimate D2E/DX2                !
 ! R26   R(19,22)                1.7449         estimate D2E/DX2                !
 ! R27   R(20,21)                1.0811         estimate D2E/DX2                !
 ! R28   R(20,22)                1.7105         estimate D2E/DX2                !
 ! R29   R(25,26)                1.4456         estimate D2E/DX2                !
 ! R30   R(25,31)                1.3869         estimate D2E/DX2                !
 ! R31   R(25,35)                1.3704         estimate D2E/DX2                !
 ! R32   R(26,33)                1.4028         estimate D2E/DX2                !
 ! R33   R(26,36)                1.3629         estimate D2E/DX2                !
 ! R34   R(27,28)                1.0882         estimate D2E/DX2                !
 ! R35   R(27,29)                1.4404         estimate D2E/DX2                !
 ! R36   R(27,36)                1.311          estimate D2E/DX2                !
 ! R37   R(29,30)                1.0885         estimate D2E/DX2                !
 ! R38   R(29,35)                1.3107         estimate D2E/DX2                !
 ! R39   R(31,32)                1.0808         estimate D2E/DX2                !
 ! R40   R(31,34)                1.7149         estimate D2E/DX2                !
 ! R41   R(33,34)                1.7447         estimate D2E/DX2                !
 ! A1    A(2,1,3)              112.4936         estimate D2E/DX2                !
 ! A2    A(2,1,12)             121.0101         estimate D2E/DX2                !
 ! A3    A(3,1,12)             124.7435         estimate D2E/DX2                !
 ! A4    A(1,2,5)              102.7695         estimate D2E/DX2                !
 ! A5    A(1,2,9)              124.4309         estimate D2E/DX2                !
 ! A6    A(5,2,9)              132.7996         estimate D2E/DX2                !
 ! A7    A(1,3,4)              106.9841         estimate D2E/DX2                !
 ! A8    A(1,3,33)             121.8988         estimate D2E/DX2                !
 ! A9    A(4,3,33)             131.0959         estimate D2E/DX2                !
 ! A10   A(3,4,5)              108.3757         estimate D2E/DX2                !
 ! A11   A(3,4,7)              142.7132         estimate D2E/DX2                !
 ! A12   A(5,4,7)              108.2903         estimate D2E/DX2                !
 ! A13   A(2,5,4)              109.3041         estimate D2E/DX2                !
 ! A14   A(2,5,6)              141.4203         estimate D2E/DX2                !
 ! A15   A(4,5,6)              108.9393         estimate D2E/DX2                !
 ! A16   A(5,6,8)              107.0336         estimate D2E/DX2                !
 ! A17   A(5,6,19)             131.4258         estimate D2E/DX2                !
 ! A18   A(8,6,19)             121.5367         estimate D2E/DX2                !
 ! A19   A(4,7,8)              102.7028         estimate D2E/DX2                !
 ! A20   A(4,7,10)             133.5264         estimate D2E/DX2                !
 ! A21   A(8,7,10)             123.7435         estimate D2E/DX2                !
 ! A22   A(6,8,7)              112.9543         estimate D2E/DX2                !
 ! A23   A(6,8,11)             122.8855         estimate D2E/DX2                !
 ! A24   A(7,8,11)             124.0896         estimate D2E/DX2                !
 ! A25   A(14,13,19)           112.9569         estimate D2E/DX2                !
 ! A26   A(14,13,23)           121.4102         estimate D2E/DX2                !
 ! A27   A(19,13,23)           125.6329         estimate D2E/DX2                !
 ! A28   A(13,14,20)           112.2234         estimate D2E/DX2                !
 ! A29   A(13,14,24)           121.8048         estimate D2E/DX2                !
 ! A30   A(20,14,24)           125.9718         estimate D2E/DX2                !
 ! A31   A(16,15,17)           119.2335         estimate D2E/DX2                !
 ! A32   A(16,15,24)           117.4411         estimate D2E/DX2                !
 ! A33   A(17,15,24)           123.3254         estimate D2E/DX2                !
 ! A34   A(15,17,18)           119.5781         estimate D2E/DX2                !
 ! A35   A(15,17,23)           123.0676         estimate D2E/DX2                !
 ! A36   A(18,17,23)           117.3542         estimate D2E/DX2                !
 ! A37   A(6,19,13)            127.4917         estimate D2E/DX2                !
 ! A38   A(6,19,22)            123.0169         estimate D2E/DX2                !
 ! A39   A(13,19,22)           109.4912         estimate D2E/DX2                !
 ! A40   A(14,20,21)           127.3146         estimate D2E/DX2                !
 ! A41   A(14,20,22)           111.7711         estimate D2E/DX2                !
 ! A42   A(21,20,22)           120.9142         estimate D2E/DX2                !
 ! A43   A(19,22,20)            93.5573         estimate D2E/DX2                !
 ! A44   A(13,23,17)           115.3545         estimate D2E/DX2                !
 ! A45   A(14,24,15)           115.0375         estimate D2E/DX2                !
 ! A46   A(26,25,31)           112.7958         estimate D2E/DX2                !
 ! A47   A(26,25,35)           121.6587         estimate D2E/DX2                !
 ! A48   A(31,25,35)           125.5415         estimate D2E/DX2                !
 ! A49   A(25,26,33)           112.8663         estimate D2E/DX2                !
 ! A50   A(25,26,36)           121.7221         estimate D2E/DX2                !
 ! A51   A(33,26,36)           125.3212         estimate D2E/DX2                !
 ! A52   A(28,27,29)           119.3197         estimate D2E/DX2                !
 ! A53   A(28,27,36)           117.3388         estimate D2E/DX2                !
 ! A54   A(29,27,36)           123.3351         estimate D2E/DX2                !
 ! A55   A(27,29,30)           119.2152         estimate D2E/DX2                !
 ! A56   A(27,29,35)           123.4041         estimate D2E/DX2                !
 ! A57   A(30,29,35)           117.3688         estimate D2E/DX2                !
 ! A58   A(25,31,32)           127.8451         estimate D2E/DX2                !
 ! A59   A(25,31,34)           111.0225         estimate D2E/DX2                !
 ! A60   A(32,31,34)           121.1267         estimate D2E/DX2                !
 ! A61   A(3,33,26)            128.5136         estimate D2E/DX2                !
 ! A62   A(3,33,34)            122.0853         estimate D2E/DX2                !
 ! A63   A(26,33,34)           109.3952         estimate D2E/DX2                !
 ! A64   A(31,34,33)            93.9015         estimate D2E/DX2                !
 ! A65   A(25,35,29)           114.7573         estimate D2E/DX2                !
 ! A66   A(26,36,27)           114.9804         estimate D2E/DX2                !
 ! D1    D(3,1,2,5)             -2.6389         estimate D2E/DX2                !
 ! D2    D(3,1,2,9)            177.2445         estimate D2E/DX2                !
 ! D3    D(12,1,2,5)          -168.2422         estimate D2E/DX2                !
 ! D4    D(12,1,2,9)            11.6412         estimate D2E/DX2                !
 ! D5    D(2,1,3,4)              2.7922         estimate D2E/DX2                !
 ! D6    D(2,1,3,33)          -178.7091         estimate D2E/DX2                !
 ! D7    D(12,1,3,4)           167.7615         estimate D2E/DX2                !
 ! D8    D(12,1,3,33)          -13.7397         estimate D2E/DX2                !
 ! D9    D(1,2,5,4)              1.5119         estimate D2E/DX2                !
 ! D10   D(1,2,5,6)           -170.6151         estimate D2E/DX2                !
 ! D11   D(9,2,5,4)           -178.357          estimate D2E/DX2                !
 ! D12   D(9,2,5,6)              9.516          estimate D2E/DX2                !
 ! D13   D(1,3,4,5)             -1.6779         estimate D2E/DX2                !
 ! D14   D(1,3,4,7)            167.4768         estimate D2E/DX2                !
 ! D15   D(33,3,4,5)          -179.9866         estimate D2E/DX2                !
 ! D16   D(33,3,4,7)           -10.8319         estimate D2E/DX2                !
 ! D17   D(1,3,33,26)            0.9806         estimate D2E/DX2                !
 ! D18   D(1,3,33,34)          180.0            estimate D2E/DX2                !
 ! D19   D(4,3,33,26)          179.0752         estimate D2E/DX2                !
 ! D20   D(4,3,33,34)           -1.9054         estimate D2E/DX2                !
 ! D21   D(3,4,5,2)              0.07           estimate D2E/DX2                !
 ! D22   D(3,4,5,6)            174.8887         estimate D2E/DX2                !
 ! D23   D(7,4,5,2)           -173.0349         estimate D2E/DX2                !
 ! D24   D(7,4,5,6)              1.7838         estimate D2E/DX2                !
 ! D25   D(3,4,7,8)           -171.8398         estimate D2E/DX2                !
 ! D26   D(3,4,7,10)             6.2441         estimate D2E/DX2                !
 ! D27   D(5,4,7,8)             -2.6797         estimate D2E/DX2                !
 ! D28   D(5,4,7,10)           175.4043         estimate D2E/DX2                !
 ! D29   D(2,5,6,8)            172.0847         estimate D2E/DX2                !
 ! D30   D(2,5,6,19)            -7.1841         estimate D2E/DX2                !
 ! D31   D(4,5,6,8)             -0.0598         estimate D2E/DX2                !
 ! D32   D(4,5,6,19)          -179.3286         estimate D2E/DX2                !
 ! D33   D(5,6,8,7)             -1.7983         estimate D2E/DX2                !
 ! D34   D(5,6,8,11)          -178.8566         estimate D2E/DX2                !
 ! D35   D(19,6,8,7)           177.5584         estimate D2E/DX2                !
 ! D36   D(19,6,8,11)            0.5001         estimate D2E/DX2                !
 ! D37   D(5,6,19,13)          179.0111         estimate D2E/DX2                !
 ! D38   D(5,6,19,22)           -0.8203         estimate D2E/DX2                !
 ! D39   D(8,6,19,13)           -0.1686         estimate D2E/DX2                !
 ! D40   D(8,6,19,22)         -180.0            estimate D2E/DX2                !
 ! D41   D(4,7,8,6)              2.7748         estimate D2E/DX2                !
 ! D42   D(4,7,8,11)           179.7918         estimate D2E/DX2                !
 ! D43   D(10,7,8,6)          -175.5545         estimate D2E/DX2                !
 ! D44   D(10,7,8,11)            1.4625         estimate D2E/DX2                !
 ! D45   D(19,13,14,20)         -0.0225         estimate D2E/DX2                !
 ! D46   D(19,13,14,24)        179.9952         estimate D2E/DX2                !
 ! D47   D(23,13,14,20)       -179.979          estimate D2E/DX2                !
 ! D48   D(23,13,14,24)          0.0387         estimate D2E/DX2                !
 ! D49   D(14,13,19,6)        -179.8607         estimate D2E/DX2                !
 ! D50   D(14,13,19,22)         -0.0107         estimate D2E/DX2                !
 ! D51   D(23,13,19,6)           0.0937         estimate D2E/DX2                !
 ! D52   D(23,13,19,22)        179.9436         estimate D2E/DX2                !
 ! D53   D(14,13,23,17)         -0.0005         estimate D2E/DX2                !
 ! D54   D(19,13,23,17)       -179.9513         estimate D2E/DX2                !
 ! D55   D(13,14,20,21)        179.9349         estimate D2E/DX2                !
 ! D56   D(13,14,20,22)          0.0461         estimate D2E/DX2                !
 ! D57   D(24,14,20,21)         -0.0837         estimate D2E/DX2                !
 ! D58   D(24,14,20,22)       -179.9725         estimate D2E/DX2                !
 ! D59   D(13,14,24,15)         -0.0327         estimate D2E/DX2                !
 ! D60   D(20,14,24,15)        179.9875         estimate D2E/DX2                !
 ! D61   D(16,15,17,18)          0.0459         estimate D2E/DX2                !
 ! D62   D(16,15,17,23)       -179.9509         estimate D2E/DX2                !
 ! D63   D(24,15,17,18)       -179.9567         estimate D2E/DX2                !
 ! D64   D(24,15,17,23)          0.0465         estimate D2E/DX2                !
 ! D65   D(16,15,24,14)        179.9907         estimate D2E/DX2                !
 ! D66   D(17,15,24,14)         -0.0068         estimate D2E/DX2                !
 ! D67   D(15,17,23,13)         -0.0394         estimate D2E/DX2                !
 ! D68   D(18,17,23,13)        179.9637         estimate D2E/DX2                !
 ! D69   D(6,19,22,20)         179.8895         estimate D2E/DX2                !
 ! D70   D(13,19,22,20)          0.0315         estimate D2E/DX2                !
 ! D71   D(14,20,22,19)         -0.0451         estimate D2E/DX2                !
 ! D72   D(21,20,22,19)       -179.942          estimate D2E/DX2                !
 ! D73   D(31,25,26,33)          1.493          estimate D2E/DX2                !
 ! D74   D(31,25,26,36)       -175.2231         estimate D2E/DX2                !
 ! D75   D(35,25,26,33)       -179.2007         estimate D2E/DX2                !
 ! D76   D(35,25,26,36)          4.0833         estimate D2E/DX2                !
 ! D77   D(26,25,31,32)        179.9565         estimate D2E/DX2                !
 ! D78   D(26,25,31,34)         -0.9139         estimate D2E/DX2                !
 ! D79   D(35,25,31,32)          0.6821         estimate D2E/DX2                !
 ! D80   D(35,25,31,34)        179.8117         estimate D2E/DX2                !
 ! D81   D(26,25,35,29)         -1.0313         estimate D2E/DX2                !
 ! D82   D(31,25,35,29)        178.1829         estimate D2E/DX2                !
 ! D83   D(25,26,33,3)         177.771          estimate D2E/DX2                !
 ! D84   D(25,26,33,34)         -1.3482         estimate D2E/DX2                !
 ! D85   D(36,26,33,3)          -5.6527         estimate D2E/DX2                !
 ! D86   D(36,26,33,34)        175.228          estimate D2E/DX2                !
 ! D87   D(25,26,36,27)         -3.8326         estimate D2E/DX2                !
 ! D88   D(33,26,36,27)        179.8765         estimate D2E/DX2                !
 ! D89   D(28,27,29,30)          1.6008         estimate D2E/DX2                !
 ! D90   D(28,27,29,35)       -177.1085         estimate D2E/DX2                !
 ! D91   D(36,27,29,30)       -179.3442         estimate D2E/DX2                !
 ! D92   D(36,27,29,35)          1.9465         estimate D2E/DX2                !
 ! D93   D(28,27,36,26)       -179.8815         estimate D2E/DX2                !
 ! D94   D(29,27,36,26)          1.046          estimate D2E/DX2                !
 ! D95   D(27,29,35,25)         -1.802          estimate D2E/DX2                !
 ! D96   D(30,29,35,25)        179.4665         estimate D2E/DX2                !
 ! D97   D(25,31,34,33)          0.118          estimate D2E/DX2                !
 ! D98   D(32,31,34,33)        179.3151         estimate D2E/DX2                !
 ! D99   D(3,33,34,31)        -178.4709         estimate D2E/DX2                !
 ! D100  D(26,33,34,31)          0.7157         estimate D2E/DX2                !
 --------------------------------------------------------------------------------
 Trust Radius=3.00D-01 FncErr=1.00D-07 GrdErr=1.00D-06
 Number of steps in this run= 216 maximum allowed number of steps= 216.
 GradGradGradGradGradGradGradGradGradGradGradGradGradGradGradGradGradGrad

                          Input orientation:                          
 ---------------------------------------------------------------------
 Center     Atomic      Atomic             Coordinates (Angstroms)
 Number     Number       Type             X           Y           Z
 ---------------------------------------------------------------------
      1          7           0        0.599862   -1.384747    2.397998
      2          6           0        0.976386   -0.015207    2.443738
      3          6           0       -0.037932   -1.724603    1.200663
      4          6           0       -0.035791   -0.590146    0.404672
      5          6           0        0.576175    0.471410    1.136044
      6          6           0        0.689838    1.583333    0.307940
      7          6           0       -0.279357   -0.123958   -0.968678
      8          7           0        0.160695    1.228739   -0.922670
      9          8           0        1.505647    0.527473    3.409832
     10          8           0       -0.704530   -0.664416   -1.976498
     11          1           0        0.138126    1.861189   -1.715336
     12          1           0        0.593481   -1.951295    3.235055
     13          6           0        1.324217    3.951973   -0.373316
     14          6           0        1.935831    5.129073    0.194784
     15          6           0        1.688693    6.211266   -1.775007
     16          1           0        1.810657    7.099990   -2.390867
     17          6           0        1.080581    5.042074   -2.344033
     18          1           0        0.751022    5.058710   -3.380568
     19          6           0        1.234192    2.884054    0.540775
     20          6           0        2.299849    4.943245    1.523140
     21          1           0        2.774035    5.659917    2.179129
     22         16           0        1.909859    3.371470    2.073918
     23          7           0        0.895364    3.928078   -1.668463
     24          7           0        2.113369    6.272061   -0.534241
     25          6           0       -1.125754   -5.330071    1.222195
     26          6           0       -0.484762   -4.168670    1.796604
     27          6           0        0.053200   -5.371712    3.626565
     28          1           0        0.540736   -5.455753    4.595843
     29          6           0       -0.636142   -6.513392    3.082409
     30          1           0       -0.680074   -7.433581    3.662292
     31          6           0       -1.615746   -5.097186   -0.054216
     32          1           0       -2.133222   -5.790039   -0.702472
     33          6           0       -0.526880   -3.049326    0.952182
     34         16           0       -1.323219   -3.478630   -0.539667
     35          7           0       -1.202717   -6.518358    1.900524
     36          7           0        0.144859   -4.221470    3.004212
 ---------------------------------------------------------------------
                    Distance matrix (angstroms):
                    1          2          3          4          5
     1  N    0.000000
     2  C    1.421092   0.000000
     3  C    1.398533   2.344379   0.000000
     4  C    2.238034   2.347945   1.385857   0.000000
     5  C    2.244640   1.451561   2.281179   1.426993   0.000000
     6  C    3.631245   2.683109   3.502720   2.293448   1.391060
     7  C    3.700962   3.637760   2.706731   1.470628   2.348670
     8  N    4.248531   3.680415   3.642832   2.260262   2.232594
     9  O    2.345387   1.227989   3.512109   3.557540   2.457066
    10  O    4.621313   4.773409   3.415070   2.474409   3.552214
    11  H    5.260116   4.639120   4.625143   3.245570   3.202146
    12  H    1.010783   2.126320   2.142154   3.203089   3.205565
    13  C    6.056852   4.878042   6.046187   4.804761   3.866788
    14  C    7.004914   5.695783   7.202806   6.053165   4.942515
    15  C    8.734926   7.554744   8.649501   7.347384   6.531299
    16  H    9.817842   8.642652   9.705144   8.388242   7.609279
    17  C    8.001373   6.964890   7.720354   6.365812   5.766830
    18  H    8.656374   7.727740   8.223349   6.845195   6.440006
    19  C    4.698331   3.477563   4.826331   3.701546   2.570639
    20  C    6.610508   5.213953   7.073147   6.109386   4.808139
    21  H    7.375786   5.958909   7.962141   7.078637   5.730551
    22  S    4.943958   3.532382   5.525072   4.718722   3.326961
    23  N    6.696980   5.697917   6.407474   5.057597   4.462700
    24  N    8.337592   7.049172   8.460770   7.251919   6.228994
    25  C    4.463838   5.844565   3.766062   4.931861   6.046583
    26  C    3.047673   4.450280   2.555047   3.865861   4.805441
    27  C    4.207625   5.562688   4.381177   5.766445   6.373247
    28  H    4.626782   5.866932   5.077754   6.447669   6.863143
    29  C    5.319692   6.725664   5.179896   6.528058   7.351565
    30  H    6.310710   7.698117   6.250151   7.606562   8.393388
    31  C    4.970359   6.227795   3.929190   4.797942   6.101680
    32  H    6.040634   7.274406   4.953779   5.715231   7.065884
    33  C    2.476036   3.700058   1.433773   2.566808   3.694065
    34  S    4.088088   5.117049   2.785197   3.300392   4.692390
    35  N    5.463582   6.880010   4.982631   6.224386   7.252981
    36  N    2.936243   4.324144   3.085538   4.469537   5.069439
                    6          7          8          9         10
     6  C    0.000000
     7  C    2.341780   0.000000
     8  N    1.385688   1.423219   0.000000
     9  O    3.376702   4.773044   4.590342   0.000000
    10  O    3.495039   1.220069   2.333067   5.942898   0.000000
    11  H    2.115475   2.161619   1.014309   5.469576   2.675249
    12  H    4.590303   4.666088   5.252294   2.647052   5.522787
    13  C    2.544995   4.420308   3.011906   5.106107   5.291224
    14  C    3.759997   5.818508   4.428591   5.629948   6.726848
    15  C    5.172441   6.682698   5.280798   7.695555   7.283071
    16  H    6.242860   7.653509   6.272923   8.771495   8.172140
    17  C    4.375903   5.516241   4.172288   7.325931   5.990470
    18  H    5.068242   5.808523   4.588946   8.198238   6.069944
    19  C    1.429129   3.690178   2.456448   3.722721   4.763082
    20  C    3.918910   6.207899   4.935131   4.867176   7.260828
    21  H    4.946086   7.258450   6.007166   5.428206   8.328676
    22  S    2.793665   5.125239   4.078040   3.168023   6.287231
    23  N    3.073473   4.276525   2.895233   6.142120   4.872940
    24  N    4.971909   6.842728   5.422076   6.994664   7.624656
    25  C    7.206066   5.711385   7.019500   6.783867   5.672513
    26  C    6.056512   4.903944   6.078083   5.349578   5.154066
    27  C    7.732479   6.983250   8.017048   6.079224   7.357113
    28  H    8.243609   7.750128   8.676454   6.175490   8.228200
    29  C    8.660997   7.573868   8.753068   7.366699   7.733546
    30  H    9.717668   8.662392   9.836897   8.259509   8.810116
    31  C    7.076454   5.230217   6.627766   7.306128   4.916801
    32  H    7.959724   5.967592   7.387407   8.370386   5.471409
    33  C    4.832906   3.508383   4.721194   4.792150   3.781074
    34  S    5.513103   3.539424   4.950557   6.296816   3.219792
    35  N    8.470861   7.069177   8.357441   7.697855   7.039043
    36  N    6.423599   5.723060   6.717547   4.956686   6.179123
                   11         12         13         14         15
    11  H    0.000000
    12  H    6.264883   0.000000
    13  C    2.753036   6.957219   0.000000
    14  C    4.190390   7.821558   1.443043   0.000000
    15  C    4.618548   9.639897   2.683651   2.261039   0.000000
    16  H    5.540644  10.726522   3.770563   3.253579   1.088113
    17  C    3.376612   8.959392   2.265260   2.680413   1.435479
    18  H    3.656881   9.640096   3.255301   3.767209   2.187564
    19  C    2.708810   5.572276   1.408587   2.377418   4.079186
    20  C    4.965868   7.305958   2.351813   1.389810   3.585967
    21  H    6.045263   7.987512   3.396177   2.218560   4.137287
    22  S    4.447295   5.604723   2.582424   2.573128   4.788275
    23  N    2.201735   7.661765   1.364511   2.448806   2.419436
    24  N    4.975175   9.172853   2.455904   1.367267   1.312839
    25  C    7.870241   4.292261   9.731616  10.946350  12.251808
    26  C    7.005777   2.854558   8.598011   9.740283  11.190325
    27  C    8.992107   3.484887  10.224756  11.206601  12.884766
    28  H    9.671128   3.759755  10.668257  11.547907  13.342596
    29  C    9.682534   4.727368  11.194146  12.267861  13.817246
    30  H   10.769451   5.644460  12.244760  13.292360  14.878075
    31  C    7.365756   5.059310   9.520109  10.828299  11.906365
    32  H    8.045260   6.137995  10.342583  11.687141  12.640755
    33  C    5.627703   2.769908   7.362180   8.574661   9.904791
    34  S    5.659628   4.500557   7.889896   9.233276  10.222121
    35  N    9.224376   5.085800  11.008341  12.182884  13.561456
    36  N    7.698891   2.325564   8.922094   9.926385  11.578702
                   16         17         18         19         20
    16  H    0.000000
    17  C    2.184084   0.000000
    18  H    2.503829   1.087792   0.000000
    19  C    5.167296   3.605935   4.509935   0.000000
    20  C    4.495588   4.056034   5.143787   2.518121   0.000000
    21  H    4.887409   4.869139   5.946786   3.572217   1.081107
    22  S    5.817732   4.795509   5.825899   1.744886   1.710534
    23  N    3.379446   1.315936   2.056810   2.466885   3.631731
    24  N    2.055276   2.419683   3.380797   3.661585   2.456286
    25  C   13.273400  11.187819  11.516704   8.573536  10.833575
    26  C   12.238732  10.219245  10.652456   7.367009   9.531832
    27  C   13.958564  12.047842  12.584935   8.892385  10.764301
    28  H   14.424753  12.595940  13.199292   9.299293  10.985224
    29  C   14.875071  12.881080  13.326959   9.913125  11.929204
    30  H   15.939547  13.957715  14.412052  10.948144  12.908978
    31  C   12.882984  10.738623  10.945704   8.495666  10.891748
    32  H   13.585202  11.417439  11.540642   9.387493  11.824079
    33  C   10.938403   8.883677   9.281487   6.202873   8.496916
    34  S   11.187284   9.035286   9.233600   6.942006   9.397328
    35  N   14.593007  12.524907  12.873831   9.807792  11.990776
    36  N   12.651372  10.737437  11.280718   7.598924   9.530455
                   21         22         23         24         25
    21  H    0.000000
    22  S    2.448440   0.000000
    23  N    4.618727   3.917196   0.000000
    24  N    2.858947   3.906064   2.874761   0.000000
    25  C   11.700595   9.255117   9.907277  12.173186   0.000000
    26  C   10.361814   7.916111   8.914525  11.008723   1.445569
    27  C   11.454032   9.071997  10.734648  12.535312   2.678183
    28  H   11.592509   9.281944  11.288206  12.896998   3.764903
    29  C   12.674174  10.257177  11.573271  13.568632   2.258399
    30  H   13.622420  11.224072  12.648567  14.603384   3.252301
    31  C   11.831030   9.416845   9.506148  11.974828   1.386921
    32  H   12.786175  10.391732  10.224836  12.788905   2.220563
    33  C    9.394272   6.958636   7.587801   9.801460   2.373469
    34  S   10.377494   8.012958   7.813809  10.338575   2.563393
    35  N   12.814154  10.369517  11.236887  13.435748   1.370430
    36  N   10.258418   7.850695   9.424027  11.247661   2.453373
                   26         27         28         29         30
    26  C    0.000000
    27  C    2.255099   0.000000
    28  H    3.247148   1.088234   0.000000
    29  C    2.678420   1.440393   2.189549   0.000000
    30  H    3.765446   2.188668   2.504735   1.088550   0.000000
    31  C    2.359407   4.050789   5.138291   3.578223   4.488502
    32  H    3.404649   4.867854   5.944236   4.133982   4.885082
    33  C    1.402766   3.589192   4.495216   4.068115   5.156535
    34  S    2.576301   4.778680   5.810061   4.775070   5.806180
    35  N    2.459124   2.423085   3.381346   1.310680   2.052953
    36  N    1.362911   1.311023   2.052673   2.422598   3.381011
                   31         32         33         34         35
    31  C    0.000000
    32  H    1.080769   0.000000
    33  C    2.528279   3.581860   0.000000
    34  S    1.714922   2.454632   1.744727   0.000000
    35  N    2.451801   2.858649   3.659274   3.899871   0.000000
    36  N    3.636012   4.624885   2.456823   3.907191   2.882669
                   36
    36  N    0.000000
 Symmetry turned off by external request.
 Stoichiometry    C18H8N6O2S2
 Framework group  C1[X(C18H8N6O2S2)]
 Deg. of freedom   102
 Full point group                 C1      NOp   1
 Rotational constants (GHZ):      0.4636392      0.0738315      0.0637683
 Standard basis: 6-31+G(d,p) (6D, 7F)
 Integral buffers will be    131072 words long.
 Raffenetti 2 integral format.
 Two-electron integral symmetry is turned off.
   580 basis functions,  1000 primitive gaussians,   580 cartesian basis functions
   103 alpha electrons      103 beta electrons
       nuclear repulsion energy      2658.9094147043 Hartrees.
 NAtoms=   36 NActive=   36 NUniq=   36 SFac= 7.50D-01 NAtFMM=   80 NAOKFM=F Big=F
 One-electron integrals computed using PRISM.
 NBasis=   580 RedAO= T  NBF=   580
 NBsUse=   574 1.00D-06 NBFU=   574
 Harris functional with IExCor=  402 diagonalized for initial guess.
 ExpMin= 4.05D-02 ExpMax= 2.19D+04 ExpMxC= 3.30D+03 IAcc=2 IRadAn=         0 AccDes= 0.00D+00
 HarFok:  IExCor=  402 AccDes= 0.00D+00 IRadAn=         0 IDoV= 1
 ScaDFX=  1.000000  1.000000  1.000000  1.000000
 FoFCou: FMM=F IPFlag=           0 FMFlag=      100000 FMFlg1=           0
         NFxFlg=           0 DoJE=T BraDBF=F KetDBF=T FulRan=T
         Omega=  0.000000  0.000000  1.000000  0.000000  0.000000 ICntrl=     500 IOpCl=  0
         NMat0=    1 NMatS0=    1 NMatT0=    0 NMatD0=    1 NMtDS0=    0 NMtDT0=    0
         I1Cent=           4 NGrid=           0.
 Symmetry not used in FoFCou.
 Requested convergence on RMS density matrix=1.00D-08 within 128 cycles.
 Requested convergence on MAX density matrix=1.00D-06.
 Requested convergence on             energy=1.00D-06.
 No special actions if energy rises.
 SCF Done:  E(RB3LYP) =  -1966.10538650     A.U. after   17 cycles
             Convg  =    0.5272D-08             -V/T =  2.0069

 **********************************************************************

            Population analysis using the SCF density.

 **********************************************************************

 Alpha  occ. eigenvalues --  -88.95770 -88.95537 -19.14167 -19.13869 -14.38692
 Alpha  occ. eigenvalues --  -14.38675 -14.38568 -14.38270 -14.37956 -14.37808
 Alpha  occ. eigenvalues --  -10.31044 -10.30593 -10.28084 -10.28001 -10.26549
 Alpha  occ. eigenvalues --  -10.26453 -10.26337 -10.26246 -10.26196 -10.26131
 Alpha  occ. eigenvalues --  -10.26057 -10.26043 -10.25964 -10.25827 -10.24993
 Alpha  occ. eigenvalues --  -10.24917 -10.20646 -10.20374  -8.01502  -8.01291
 Alpha  occ. eigenvalues --   -5.97899  -5.97690  -5.97503  -5.97310  -5.97293
 Alpha  occ. eigenvalues --   -5.97092  -1.05653  -1.04910  -1.01208  -1.01082
 Alpha  occ. eigenvalues --   -0.98343  -0.96896  -0.94243  -0.94172  -0.90934
 Alpha  occ. eigenvalues --   -0.90813  -0.81727  -0.79703  -0.78689  -0.78517
 Alpha  occ. eigenvalues --   -0.78242  -0.72960  -0.70019  -0.69409  -0.69141
 Alpha  occ. eigenvalues --   -0.68086  -0.64539  -0.64386  -0.62725  -0.60042
 Alpha  occ. eigenvalues --   -0.57322  -0.56493  -0.56179  -0.54537  -0.54238
 Alpha  occ. eigenvalues --   -0.52817  -0.51668  -0.51542  -0.49495  -0.47922
 Alpha  occ. eigenvalues --   -0.47849  -0.47427  -0.46697  -0.45990  -0.45665
 Alpha  occ. eigenvalues --   -0.45199  -0.45104  -0.43851  -0.43616  -0.42968
 Alpha  occ. eigenvalues --   -0.42852  -0.42307  -0.40056  -0.39793  -0.38979
 Alpha  occ. eigenvalues --   -0.37921  -0.37685  -0.37449  -0.37238  -0.34915
 Alpha  occ. eigenvalues --   -0.34626  -0.34552  -0.34443  -0.28780  -0.28675
 Alpha  occ. eigenvalues --   -0.28434  -0.27856  -0.27628  -0.27176  -0.26723
 Alpha  occ. eigenvalues --   -0.26440  -0.26084  -0.19981
 Alpha virt. eigenvalues --   -0.12833  -0.11036  -0.08370  -0.04117  -0.02299
 Alpha virt. eigenvalues --   -0.02152  -0.00596  -0.00504  -0.00362  -0.00272
 Alpha virt. eigenvalues --   -0.00113   0.00841   0.01338   0.01887   0.01992
 Alpha virt. eigenvalues --    0.02058   0.03258   0.03362   0.03584   0.03735
 Alpha virt. eigenvalues --    0.03897   0.04279   0.04999   0.05780   0.05883
 Alpha virt. eigenvalues --    0.06005   0.06332   0.06566   0.07016   0.07421
 Alpha virt. eigenvalues --    0.07633   0.07713   0.08205   0.08346   0.08652
 Alpha virt. eigenvalues --    0.09264   0.09500   0.09714   0.09947   0.10421
 Alpha virt. eigenvalues --    0.10770   0.10813   0.11256   0.11978   0.12112
 Alpha virt. eigenvalues --    0.12690   0.12781   0.13035   0.13077   0.13294
 Alpha virt. eigenvalues --    0.13658   0.13945   0.14190   0.14702   0.15020
 Alpha virt. eigenvalues --    0.15072   0.15225   0.15586   0.16018   0.16101
 Alpha virt. eigenvalues --    0.16638   0.16838   0.17262   0.17379   0.17426
 Alpha virt. eigenvalues --    0.17810   0.18019   0.18648   0.18771   0.18785
 Alpha virt. eigenvalues --    0.19326   0.19438   0.19562   0.19684   0.19998
 Alpha virt. eigenvalues --    0.20175   0.20606   0.20918   0.21233   0.21470
 Alpha virt. eigenvalues --    0.21691   0.21865   0.21970   0.22315   0.22863
 Alpha virt. eigenvalues --    0.22921   0.23178   0.23741   0.23952   0.24442
 Alpha virt. eigenvalues --    0.24461   0.24931   0.25467   0.25600   0.25720
 Alpha virt. eigenvalues --    0.25944   0.26081   0.26194   0.26795   0.26957
 Alpha virt. eigenvalues --    0.27307   0.27540   0.27615   0.27824   0.28205
 Alpha virt. eigenvalues --    0.28258   0.28402   0.28979   0.29232   0.29437
 Alpha virt. eigenvalues --    0.29679   0.30211   0.30246   0.30682   0.30729
 Alpha virt. eigenvalues --    0.30929   0.31119   0.31361   0.31538   0.32124
 Alpha virt. eigenvalues --    0.32438   0.32878   0.32910   0.33241   0.33770
 Alpha virt. eigenvalues --    0.33900   0.35019   0.35086   0.35164   0.36072
 Alpha virt. eigenvalues --    0.36591   0.36778   0.37014   0.38073   0.38305
 Alpha virt. eigenvalues --    0.38860   0.39323   0.39791   0.40025   0.41451
 Alpha virt. eigenvalues --    0.41888   0.42972   0.43450   0.44239   0.44895
 Alpha virt. eigenvalues --    0.46630   0.47226   0.47520   0.48560   0.49578
 Alpha virt. eigenvalues --    0.50228   0.50519   0.50644   0.52211   0.53056
 Alpha virt. eigenvalues --    0.53279   0.54249   0.55733   0.56970   0.57863
 Alpha virt. eigenvalues --    0.59828   0.60088   0.61353   0.62747   0.63259
 Alpha virt. eigenvalues --    0.63625   0.64049   0.64823   0.65139   0.65578
 Alpha virt. eigenvalues --    0.65697   0.66029   0.66601   0.67456   0.67593
 Alpha virt. eigenvalues --    0.69675   0.70404   0.70697   0.71330   0.72470
 Alpha virt. eigenvalues --    0.72593   0.72867   0.73530   0.74012   0.74877
 Alpha virt. eigenvalues --    0.75290   0.75767   0.76705   0.78111   0.78800
 Alpha virt. eigenvalues --    0.79396   0.80304   0.81142   0.81316   0.81651
 Alpha virt. eigenvalues --    0.82006   0.83389   0.84063   0.84202   0.84647
 Alpha virt. eigenvalues --    0.84954   0.85953   0.87186   0.87802   0.87887
 Alpha virt. eigenvalues --    0.89228   0.90500   0.90761   0.92015   0.92358
 Alpha virt. eigenvalues --    0.92650   0.92940   0.93150   0.94355   0.95265
 Alpha virt. eigenvalues --    0.96150   0.96796   0.97651   0.98176   0.99377
 Alpha virt. eigenvalues --    0.99528   0.99714   1.01089   1.01912   1.03488
 Alpha virt. eigenvalues --    1.04035   1.04544   1.04904   1.05775   1.06090
 Alpha virt. eigenvalues --    1.06818   1.07723   1.07872   1.09311   1.10419
 Alpha virt. eigenvalues --    1.11270   1.11909   1.13425   1.13950   1.14158
 Alpha virt. eigenvalues --    1.15529   1.16267   1.16889   1.17035   1.17703
 Alpha virt. eigenvalues --    1.18881   1.19677   1.20472   1.21003   1.21428
 Alpha virt. eigenvalues --    1.22923   1.23315   1.23651   1.24002   1.24067
 Alpha virt. eigenvalues --    1.24488   1.26020   1.26112   1.27078   1.27999
 Alpha virt. eigenvalues --    1.28288   1.28809   1.29819   1.30605   1.31270
 Alpha virt. eigenvalues --    1.32069   1.32542   1.32850   1.33696   1.33916
 Alpha virt. eigenvalues --    1.34617   1.35015   1.35486   1.36357   1.37432
 Alpha virt. eigenvalues --    1.37865   1.39192   1.39920   1.41101   1.41876
 Alpha virt. eigenvalues --    1.42413   1.43082   1.43384   1.43864   1.44317
 Alpha virt. eigenvalues --    1.44493   1.44598   1.45249   1.46944   1.47389
 Alpha virt. eigenvalues --    1.49548   1.50322   1.51565   1.53443   1.54484
 Alpha virt. eigenvalues --    1.54795   1.58081   1.58971   1.60779   1.64675
 Alpha virt. eigenvalues --    1.65398   1.65824   1.65886   1.66587   1.68062
 Alpha virt. eigenvalues --    1.71097   1.73001   1.74167   1.74648   1.75243
 Alpha virt. eigenvalues --    1.77908   1.78314   1.79580   1.80619   1.80938
 Alpha virt. eigenvalues --    1.81571   1.82337   1.82565   1.83048   1.83547
 Alpha virt. eigenvalues --    1.84360   1.84697   1.86869   1.87818   1.89179
 Alpha virt. eigenvalues --    1.89703   1.90140   1.91289   1.91977   1.94059
 Alpha virt. eigenvalues --    1.94995   1.97140   1.97595   1.98533   1.99108
 Alpha virt. eigenvalues --    1.99622   2.00882   2.01552   2.01855   2.03087
 Alpha virt. eigenvalues --    2.04211   2.05101   2.05714   2.07375   2.09135
 Alpha virt. eigenvalues --    2.12742   2.13901   2.15096   2.15384   2.16614
 Alpha virt. eigenvalues --    2.17507   2.18156   2.18518   2.19186   2.20269
 Alpha virt. eigenvalues --    2.20925   2.23596   2.24614   2.25385   2.25514
 Alpha virt. eigenvalues --    2.26766   2.27799   2.29189   2.30333   2.30948
 Alpha virt. eigenvalues --    2.32015   2.33491   2.34002   2.34683   2.37276
 Alpha virt. eigenvalues --    2.38326   2.38858   2.39176   2.40398   2.40908
 Alpha virt. eigenvalues --    2.41189   2.42717   2.43814   2.44204   2.45518
 Alpha virt. eigenvalues --    2.46406   2.47771   2.49132   2.49651   2.51158
 Alpha virt. eigenvalues --    2.53329   2.53650   2.53868   2.55283   2.55722
 Alpha virt. eigenvalues --    2.56454   2.57414   2.60293   2.60984   2.61578
 Alpha virt. eigenvalues --    2.62457   2.62830   2.64750   2.65415   2.68125
 Alpha virt. eigenvalues --    2.68892   2.69121   2.69654   2.70585   2.72436
 Alpha virt. eigenvalues --    2.72853   2.76279   2.77235   2.79485   2.80062
 Alpha virt. eigenvalues --    2.80900   2.84851   2.87017   2.89763   2.90748
 Alpha virt. eigenvalues --    2.93790   2.94934   2.95997   2.96377   2.98257
 Alpha virt. eigenvalues --    3.00247   3.02638   3.05147   3.08226   3.08337
 Alpha virt. eigenvalues --    3.09670   3.16827   3.20536   3.21601   3.26994
 Alpha virt. eigenvalues --    3.28181   3.29154   3.29923   3.30303   3.31646
 Alpha virt. eigenvalues --    3.35727   3.45341   3.46382   3.46475   3.57563
 Alpha virt. eigenvalues --    3.60465   3.68016   3.68305   3.95603   3.96327
 Alpha virt. eigenvalues --    4.15496   4.17214   4.24887   4.28450   4.28698
 Alpha virt. eigenvalues --    4.33051   4.35306   4.35869   4.36797   4.38366
 Alpha virt. eigenvalues --    4.43174   4.44723   4.48899   4.50242   4.51738
 Alpha virt. eigenvalues --    4.54239   4.54550   4.60812   4.63709   4.65854
 Alpha virt. eigenvalues --    4.71789   4.78524   4.78871   4.81055   5.02519
 Alpha virt. eigenvalues --    5.07826
          Condensed to atoms (all electrons):
              1          2          3          4          5          6
     1  N    7.381199   0.419169   0.036524  -0.156345  -0.406477   0.046291
     2  C    0.419169  10.247114  -0.234945  -0.146620  -4.203899  -0.812555
     3  C    0.036524  -0.234945  10.582725   1.480478  -3.381612  -1.657163
     4  C   -0.156345  -0.146620   1.480478  15.814187  -3.339145  -3.648258
     5  C   -0.406477  -4.203899  -3.381612  -3.339145  15.619889   1.966832
     6  C    0.046291  -0.812555  -1.657163  -3.648258   1.966832  10.842739
     7  C    0.057431   1.059646  -0.594882  -3.919254  -0.425806  -0.133741
     8  N    0.006444   0.051381   0.053923  -0.498517  -0.135122   0.064914
     9  O   -0.080163   0.167865   0.020889  -0.118906   0.103812   0.086855
    10  O   -0.006549  -0.012786   0.109891   0.078852  -0.126394  -0.007096
    11  H    0.000120   0.007484  -0.008214  -0.046593   0.052670   0.013070
    12  H    0.299473  -0.045536   0.023794   0.041205  -0.027657  -0.010387
    13  C    0.028493   0.084978   0.199677   0.805706   0.032736  -0.720823
    14  C   -0.002952  -0.071008  -0.070040  -0.031539  -0.413003  -0.600699
    15  C   -0.000036  -0.008864  -0.001104   0.032692  -0.058335   0.059505
    16  H    0.000000   0.000024  -0.000002  -0.000096   0.000329  -0.003743
    17  C    0.000391   0.008858   0.005919  -0.062071   0.109559  -0.083914
    18  H    0.000000   0.000033  -0.000046  -0.002093  -0.000422   0.011324
    19  C   -0.102932  -0.692757  -0.338897   0.559518  -0.152996   0.980395
    20  C    0.002938   0.198277   0.020701  -0.172843   0.474974  -0.721900
    21  H    0.000003   0.000645   0.000044   0.000553   0.001751  -0.006257
    22  S    0.004224  -0.152243  -0.051780  -0.112391  -0.090155   0.037174
    23  N   -0.000746  -0.005907  -0.004236  -0.051265   0.012366   0.050978
    24  N    0.000055   0.000754   0.000722  -0.002387   0.010678   0.028060
    25  C    0.061883   0.028282  -0.480798  -0.651125   0.089379  -0.093675
    26  C    0.098818  -0.161042  -0.858769   0.046831   0.856405   0.212757
    27  C   -0.059252  -0.022012  -0.057883   0.123963  -0.081078   0.006539
    28  H   -0.002834   0.000374   0.011606  -0.000576  -0.002239  -0.000040
    29  C    0.019206  -0.001713   0.045015  -0.065908   0.042696  -0.001603
    30  H   -0.000014   0.000005  -0.003511   0.000303  -0.000105  -0.000002
    31  C   -0.021211   0.023577  -0.761151   0.558840  -0.173498   0.033684
    32  H    0.000131  -0.000107  -0.006786   0.002285   0.000696   0.000050
    33  C   -0.220012  -0.497411   1.229438   0.000200   0.334182  -0.474654
    34  S    0.006711   0.075441   0.030518  -0.153902  -0.085201  -0.067638
    35  N    0.000027   0.001696   0.022511   0.015098  -0.003871   0.000916
    36  N    0.019080  -0.031740   0.063011   0.020552  -0.034153  -0.003393
              7          8          9         10         11         12
     1  N    0.057431   0.006444  -0.080163  -0.006549   0.000120   0.299473
     2  C    1.059646   0.051381   0.167865  -0.012786   0.007484  -0.045536
     3  C   -0.594882   0.053923   0.020889   0.109891  -0.008214   0.023794
     4  C   -3.919254  -0.498517  -0.118906   0.078852  -0.046593   0.041205
     5  C   -0.425806  -0.135122   0.103812  -0.126394   0.052670  -0.027657
     6  C   -0.133741   0.064914   0.086855  -0.007096   0.013070  -0.010387
     7  C   10.070538   0.489200  -0.018244   0.166526  -0.026916   0.001848
     8  N    0.489200   7.406482  -0.006076  -0.076152   0.292228   0.000031
     9  O   -0.018244  -0.006076   8.382411  -0.000005   0.000007  -0.000136
    10  O    0.166526  -0.076152  -0.000005   8.376418  -0.001343   0.000006
    11  H   -0.026916   0.292228   0.000007  -0.001343   0.356416   0.000000
    12  H    0.001848   0.000031  -0.000136   0.000006   0.000000   0.368867
    13  C   -0.134613   0.074129  -0.010618   0.000119   0.016001   0.000355
    14  C    0.042546   0.024807  -0.016967   0.000737   0.012902  -0.000028
    15  C    0.001503   0.011499   0.000068   0.000023  -0.001265   0.000000
    16  H   -0.000008  -0.000001   0.000000   0.000000  -0.000001   0.000000
    17  C   -0.026767  -0.045488   0.000022   0.000105  -0.003246   0.000001
    18  H    0.000239  -0.002652   0.000000  -0.000008  -0.000205   0.000000
    19  C   -0.571908  -0.206886  -0.003717   0.024835  -0.039977  -0.001157
    20  C    0.027956  -0.019094   0.018703  -0.000475   0.002038   0.000032
    21  H   -0.000083   0.000142  -0.000019   0.000000   0.000000   0.000000
    22  S    0.069934   0.011096  -0.019782  -0.002142  -0.005394   0.000921
    23  N   -0.011074   0.019270   0.000312  -0.001532   0.036234  -0.000002
    24  N    0.001482   0.001065   0.000017  -0.000005   0.000087   0.000000
    25  C   -0.090840  -0.005164   0.000264  -0.005929  -0.000031   0.013804
    26  C    0.080592   0.024656  -0.000108  -0.014368   0.000204   0.020102
    27  C    0.011538   0.000512  -0.000120  -0.000016   0.000001  -0.003501
    28  H    0.000003   0.000000  -0.000007   0.000000   0.000000  -0.000123
    29  C   -0.009733  -0.000053   0.000073   0.000083   0.000000  -0.001408
    30  H    0.000020   0.000000   0.000000   0.000000   0.000000  -0.000001
    31  C    0.210470   0.003000  -0.000257   0.008776   0.000028   0.002601
    32  H    0.000643   0.000003   0.000000  -0.000017   0.000000   0.000000
    33  C   -0.877662  -0.107158   0.020282   0.026876  -0.001714  -0.033637
    34  S   -0.095879   0.006396  -0.002197  -0.023579   0.000844  -0.005360
    35  N    0.000782   0.000060  -0.000003  -0.000004   0.000000   0.000047
    36  N   -0.001239  -0.000242  -0.000705   0.000415  -0.000001   0.022862
             13         14         15         16         17         18
     1  N    0.028493  -0.002952  -0.000036   0.000000   0.000391   0.000000
     2  C    0.084978  -0.071008  -0.008864   0.000024   0.008858   0.000033
     3  C    0.199677  -0.070040  -0.001104  -0.000002   0.005919  -0.000046
     4  C    0.805706  -0.031539   0.032692  -0.000096  -0.062071  -0.002093
     5  C    0.032736  -0.413003  -0.058335   0.000329   0.109559  -0.000422
     6  C   -0.720823  -0.600699   0.059505  -0.003743  -0.083914   0.011324
     7  C   -0.134613   0.042546   0.001503  -0.000008  -0.026767   0.000239
     8  N    0.074129   0.024807   0.011499  -0.000001  -0.045488  -0.002652
     9  O   -0.010618  -0.016967   0.000068   0.000000   0.000022   0.000000
    10  O    0.000119   0.000737   0.000023   0.000000   0.000105  -0.000008
    11  H    0.016001   0.012902  -0.001265  -0.000001  -0.003246  -0.000205
    12  H    0.000355  -0.000028   0.000000   0.000000   0.000001   0.000000
    13  C   11.584962  -3.011601   0.229685  -0.193426  -0.755857   0.067139
    14  C   -3.011601  13.497627   0.475486   0.193609  -0.233169  -0.064993
    15  C    0.229685   0.475486   5.559705   0.332708  -0.171005  -0.071273
    16  H   -0.193426   0.193609   0.332708   0.581347  -0.013820   0.000356
    17  C   -0.755857  -0.233169  -0.171005  -0.013820   6.059926   0.443323
    18  H    0.067139  -0.064993  -0.071273   0.000356   0.443323   0.573291
    19  C    0.158733  -1.485826  -0.175739  -0.008172   0.051862   0.014378
    20  C   -3.345857  -2.322785  -0.697704   0.071615   0.558549  -0.007424
    21  H   -0.017315   0.017392  -0.005050  -0.000005   0.002608   0.000000
    22  S   -0.108836   0.370169   0.021176  -0.000999   0.001814  -0.000433
    23  N    0.197088   0.068400   0.113429   0.011609   0.055211  -0.107153
    24  N    0.958779  -0.409250   0.408395  -0.109225  -0.096475   0.007751
    25  C   -0.002463   0.000069   0.000008   0.000000  -0.000049   0.000000
    26  C   -0.019733  -0.001032   0.000003   0.000000  -0.000075   0.000000
    27  C    0.000024  -0.000036   0.000000   0.000000   0.000002   0.000000
    28  H    0.000000   0.000000   0.000000   0.000000   0.000000   0.000000
    29  C   -0.000038   0.000006   0.000000   0.000000   0.000000   0.000000
    30  H    0.000000   0.000000   0.000000   0.000000   0.000000   0.000000
    31  C    0.000010  -0.000110  -0.000002   0.000000   0.000004   0.000000
    32  H    0.000000   0.000000   0.000000   0.000000   0.000000   0.000000
    33  C   -0.040121   0.003722   0.000908   0.000000  -0.002879   0.000000
    34  S    0.005718   0.000708  -0.000022   0.000000  -0.000274  -0.000002
    35  N    0.000008   0.000000   0.000000   0.000000   0.000000   0.000000
    36  N    0.000737  -0.000040   0.000000   0.000000   0.000005   0.000000
             19         20         21         22         23         24
     1  N   -0.102932   0.002938   0.000003   0.004224  -0.000746   0.000055
     2  C   -0.692757   0.198277   0.000645  -0.152243  -0.005907   0.000754
     3  C   -0.338897   0.020701   0.000044  -0.051780  -0.004236   0.000722
     4  C    0.559518  -0.172843   0.000553  -0.112391  -0.051265  -0.002387
     5  C   -0.152996   0.474974   0.001751  -0.090155   0.012366   0.010678
     6  C    0.980395  -0.721900  -0.006257   0.037174   0.050978   0.028060
     7  C   -0.571908   0.027956  -0.000083   0.069934  -0.011074   0.001482
     8  N   -0.206886  -0.019094   0.000142   0.011096   0.019270   0.001065
     9  O   -0.003717   0.018703  -0.000019  -0.019782   0.000312   0.000017
    10  O    0.024835  -0.000475   0.000000  -0.002142  -0.001532  -0.000005
    11  H   -0.039977   0.002038   0.000000  -0.005394   0.036234   0.000087
    12  H   -0.001157   0.000032   0.000000   0.000921  -0.000002   0.000000
    13  C    0.158733  -3.345857  -0.017315  -0.108836   0.197088   0.958779
    14  C   -1.485826  -2.322785   0.017392   0.370169   0.068400  -0.409250
    15  C   -0.175739  -0.697704  -0.005050   0.021176   0.113429   0.408395
    16  H   -0.008172   0.071615  -0.000005  -0.000999   0.011609  -0.109225
    17  C    0.051862   0.558549   0.002608   0.001814   0.055211  -0.096475
    18  H    0.014378  -0.007424   0.000000  -0.000433  -0.107153   0.007751
    19  C    8.572961  -0.519274   0.008502   0.194116  -0.177835   0.121398
    20  C   -0.519274  13.597741   0.318322  -0.426475   0.002916  -0.834177
    21  H    0.008502   0.318322   0.489801   0.009587  -0.000219  -0.002146
    22  S    0.194116  -0.426475   0.009587  15.872886   0.016865   0.037247
    23  N   -0.177835   0.002916  -0.000219   0.016865   7.007618  -0.044929
    24  N    0.121398  -0.834177  -0.002146   0.037247  -0.044929   7.143082
    25  C    0.009879  -0.000191   0.000000   0.000103  -0.000024   0.000000
    26  C   -0.032294  -0.000709   0.000000   0.006554   0.000620   0.000004
    27  C   -0.003086   0.000001   0.000000  -0.000197   0.000004   0.000000
    28  H    0.000000   0.000000   0.000000  -0.000002   0.000000   0.000000
    29  C    0.001046  -0.000003   0.000000  -0.000066   0.000000   0.000000
    30  H    0.000000   0.000000   0.000000   0.000000   0.000000   0.000000
    31  C   -0.015688   0.000049   0.000000   0.000162   0.000018   0.000000
    32  H    0.000001   0.000000   0.000000   0.000000   0.000000   0.000000
    33  C    0.255427  -0.014620   0.000001  -0.008605  -0.001457  -0.000032
    34  S   -0.001307  -0.000327   0.000000  -0.000534  -0.000048   0.000005
    35  N   -0.000056   0.000000   0.000000   0.000008   0.000000   0.000000
    36  N   -0.001695   0.000031   0.000000  -0.000142  -0.000002   0.000000
             25         26         27         28         29         30
     1  N    0.061883   0.098818  -0.059252  -0.002834   0.019206  -0.000014
     2  C    0.028282  -0.161042  -0.022012   0.000374  -0.001713   0.000005
     3  C   -0.480798  -0.858769  -0.057883   0.011606   0.045015  -0.003511
     4  C   -0.651125   0.046831   0.123963  -0.000576  -0.065908   0.000303
     5  C    0.089379   0.856405  -0.081078  -0.002239   0.042696  -0.000105
     6  C   -0.093675   0.212757   0.006539  -0.000040  -0.001603  -0.000002
     7  C   -0.090840   0.080592   0.011538   0.000003  -0.009733   0.000020
     8  N   -0.005164   0.024656   0.000512   0.000000  -0.000053   0.000000
     9  O    0.000264  -0.000108  -0.000120  -0.000007   0.000073   0.000000
    10  O   -0.005929  -0.014368  -0.000016   0.000000   0.000083   0.000000
    11  H   -0.000031   0.000204   0.000001   0.000000   0.000000   0.000000
    12  H    0.013804   0.020102  -0.003501  -0.000123  -0.001408  -0.000001
    13  C   -0.002463  -0.019733   0.000024   0.000000  -0.000038   0.000000
    14  C    0.000069  -0.001032  -0.000036   0.000000   0.000006   0.000000
    15  C    0.000008   0.000003   0.000000   0.000000   0.000000   0.000000
    16  H    0.000000   0.000000   0.000000   0.000000   0.000000   0.000000
    17  C   -0.000049  -0.000075   0.000002   0.000000   0.000000   0.000000
    18  H    0.000000   0.000000   0.000000   0.000000   0.000000   0.000000
    19  C    0.009879  -0.032294  -0.003086   0.000000   0.001046   0.000000
    20  C   -0.000191  -0.000709   0.000001   0.000000  -0.000003   0.000000
    21  H    0.000000   0.000000   0.000000   0.000000   0.000000   0.000000
    22  S    0.000103   0.006554  -0.000197  -0.000002  -0.000066   0.000000
    23  N   -0.000024   0.000620   0.000004   0.000000   0.000000   0.000000
    24  N    0.000000   0.000004   0.000000   0.000000   0.000000   0.000000
    25  C   13.734192  -2.793963  -0.332330  -0.063765   0.518508   0.191175
    26  C   -2.793963  11.155160  -0.756875   0.064992   0.239160  -0.190954
    27  C   -0.332330  -0.756875   6.180930   0.446689  -0.242115  -0.016985
    28  H   -0.063765   0.064992   0.446689   0.576685  -0.075198   0.000400
    29  C    0.518508   0.239160  -0.242115  -0.075198   5.612473   0.336997
    30  H    0.191175  -0.190954  -0.016985   0.000400   0.336997   0.582034
    31  C   -2.580734  -3.237437   0.571100  -0.006841  -0.711440   0.070562
    32  H    0.011244  -0.016154   0.002752   0.000000  -0.005185  -0.000005
    33  C   -1.573891   0.312646   0.091947   0.015054  -0.194068  -0.008722
    34  S    0.328905  -0.084243   0.004783  -0.000527   0.019315  -0.001035
    35  N   -0.377612   0.882454  -0.084612   0.007744   0.396305  -0.109032
    36  N    0.073550   0.217543   0.015231  -0.108865   0.130885   0.011689
             31         32         33         34         35         36
     1  N   -0.021211   0.000131  -0.220012   0.006711   0.000027   0.019080
     2  C    0.023577  -0.000107  -0.497411   0.075441   0.001696  -0.031740
     3  C   -0.761151  -0.006786   1.229438   0.030518   0.022511   0.063011
     4  C    0.558840   0.002285   0.000200  -0.153902   0.015098   0.020552
     5  C   -0.173498   0.000696   0.334182  -0.085201  -0.003871  -0.034153
     6  C    0.033684   0.000050  -0.474654  -0.067638   0.000916  -0.003393
     7  C    0.210470   0.000643  -0.877662  -0.095879   0.000782  -0.001239
     8  N    0.003000   0.000003  -0.107158   0.006396   0.000060  -0.000242
     9  O   -0.000257   0.000000   0.020282  -0.002197  -0.000003  -0.000705
    10  O    0.008776  -0.000017   0.026876  -0.023579  -0.000004   0.000415
    11  H    0.000028   0.000000  -0.001714   0.000844   0.000000  -0.000001
    12  H    0.002601   0.000000  -0.033637  -0.005360   0.000047   0.022862
    13  C    0.000010   0.000000  -0.040121   0.005718   0.000008   0.000737
    14  C   -0.000110   0.000000   0.003722   0.000708   0.000000  -0.000040
    15  C   -0.000002   0.000000   0.000908  -0.000022   0.000000   0.000000
    16  H    0.000000   0.000000   0.000000   0.000000   0.000000   0.000000
    17  C    0.000004   0.000000  -0.002879  -0.000274   0.000000   0.000005
    18  H    0.000000   0.000000   0.000000  -0.000002   0.000000   0.000000
    19  C   -0.015688   0.000001   0.255427  -0.001307  -0.000056  -0.001695
    20  C    0.000049   0.000000  -0.014620  -0.000327   0.000000   0.000031
    21  H    0.000000   0.000000   0.000001   0.000000   0.000000   0.000000
    22  S    0.000162   0.000000  -0.008605  -0.000534   0.000008  -0.000142
    23  N    0.000018   0.000000  -0.001457  -0.000048   0.000000  -0.000002
    24  N    0.000000   0.000000  -0.000032   0.000005   0.000000   0.000000
    25  C   -2.580734   0.011244  -1.573891   0.328905  -0.377612   0.073550
    26  C   -3.237437  -0.016154   0.312646  -0.084243   0.882454   0.217543
    27  C    0.571100   0.002752   0.091947   0.004783  -0.084612   0.015231
    28  H   -0.006841   0.000000   0.015054  -0.000527   0.007744  -0.108865
    29  C   -0.711440  -0.005185  -0.194068   0.019315   0.396305   0.130885
    30  H    0.070562  -0.000005  -0.008722  -0.001035  -0.109032   0.011689
    31  C   13.623229   0.324524  -0.484014  -0.431109  -0.779361  -0.022267
    32  H    0.324524   0.489047   0.008195   0.009447  -0.002375  -0.000206
    33  C   -0.484014   0.008195   8.523180   0.208477   0.124620  -0.193698
    34  S   -0.431109   0.009447   0.208477  15.897363   0.038106   0.019570
    35  N   -0.779361  -0.002375   0.124620   0.038106   7.123209  -0.041010
    36  N   -0.022267  -0.000206  -0.193698   0.019570  -0.041010   7.032072
 Mulliken atomic charges:
              1
     1  N   -0.429087
     2  C    0.725542
     3  C    0.574433
     4  C   -0.401429
     5  C   -0.567788
     6  C    0.605459
     7  C    0.645751
     8  N   -0.438635
     9  O   -0.523550
    10  O   -0.515262
    11  H    0.344568
    12  H    0.332984
    13  C   -0.083777
    14  C    0.026901
    15  C   -0.056393
    16  H    0.137901
    17  C    0.196934
    18  H    0.138869
    19  C   -0.420849
    20  C   -0.210984
    21  H    0.181744
    22  S    0.326139
    23  N   -0.186510
    24  N   -0.220954
    25  C   -0.008661
    26  C   -0.051741
    27  C    0.204083
    28  H    0.137470
    29  C   -0.053236
    30  H    0.137181
    31  C   -0.205516
    32  H    0.181820
    33  C   -0.420797
    34  S    0.300877
    35  N   -0.215656
    36  N   -0.187834
 Sum of Mulliken atomic charges =   0.00000
 Mulliken charges with hydrogens summed into heavy atoms:
              1
     1  N   -0.096102
     2  C    0.725542
     3  C    0.574433
     4  C   -0.401429
     5  C   -0.567788
     6  C    0.605459
     7  C    0.645751
     8  N   -0.094067
     9  O   -0.523550
    10  O   -0.515262
    13  C   -0.083777
    14  C    0.026901
    15  C    0.081508
    17  C    0.335803
    19  C   -0.420849
    20  C   -0.029240
    22  S    0.326139
    23  N   -0.186510
    24  N   -0.220954
    25  C   -0.008661
    26  C   -0.051741
    27  C    0.341553
    29  C    0.083945
    31  C   -0.023696
    33  C   -0.420797
    34  S    0.300877
    35  N   -0.215656
    36  N   -0.187834
 Sum of Mulliken charges with hydrogens summed into heavy atoms =   0.00000
 Electronic spatial extent (au):  <R**2>=          15583.5020
 Charge=              0.0000 electrons
 Dipole moment (field-independent basis, Debye):
    X=             -0.1350    Y=              0.2187    Z=             -0.0530  Tot=              0.2624
 Quadrupole moment (field-independent basis, Debye-Ang):
   XX=           -175.1597   YY=           -143.1782   ZZ=           -168.1485
   XY=              2.5816   XZ=             -4.5662   YZ=            -21.7364
 Traceless Quadrupole moment (field-independent basis, Debye-Ang):
   XX=            -12.9976   YY=             18.9839   ZZ=             -5.9864
   XY=              2.5816   XZ=             -4.5662   YZ=            -21.7364
 Octapole moment (field-independent basis, Debye-Ang**2):
  XXX=           -209.1609  YYY=             38.0171  ZZZ=           -367.2481  XYY=            -48.4126
  XXY=             17.5287  XXZ=           -132.8462  XZZ=            -69.4671  YZZ=             -9.3010
  YYZ=            -97.8133  XYZ=            -13.4068
 Hexadecapole moment (field-independent basis, Debye-Ang**3):
 XXXX=          -1774.6618 YYYY=         -16183.8509 ZZZZ=          -3552.4708 XXXY=          -2065.0132
 XXXZ=           -181.5367 YYYX=          -2213.7597 YYYZ=            775.9713 ZZZX=           -292.5697
 ZZZY=           1050.1514 XXYY=          -3095.9056 XXZZ=           -919.3851 YYZZ=          -2433.7262
 XXYZ=            612.5870 YYXZ=             63.8925 ZZXY=           -592.2798
 N-N= 2.658909414704D+03 E-N=-9.928059983640D+03  KE= 1.952658584456D+03
 Calling FoFJK, ICntrl=      2127 FMM=F ISym2X=0 I1Cent= 0 IOpClX= 0 NMat=1 NMatS=1 NMatT=0.
 -------------------------------------------------------------------
 Center     Atomic                   Forces (Hartrees/Bohr)
 Number     Number              X              Y              Z
 -------------------------------------------------------------------
      1        7          -0.004843604    0.005386745    0.000376119
      2        6          -0.002493882   -0.003456553   -0.000020217
      3        6           0.003836930   -0.007050143    0.004245905
      4        6           0.002901792    0.006607931   -0.005118978
      5        6           0.000160859    0.001503655   -0.003213899
      6        6           0.000653718    0.000059043    0.001280009
      7        6           0.005353107    0.006957641    0.008737053
      8        7          -0.001248678   -0.002509642   -0.001330890
      9        8          -0.000043701    0.000103135   -0.001040850
     10        8          -0.004935225   -0.005235829   -0.003522013
     11        1          -0.000021934    0.000131776   -0.000119698
     12        1           0.001541496   -0.005897040   -0.001721565
     13        6          -0.000010532   -0.000034369   -0.000115347
     14        6           0.000103136    0.000067565    0.000261795
     15        6          -0.000027173   -0.000049261   -0.000002123
     16        1          -0.000003129    0.000001980   -0.000009521
     17        6           0.000009675    0.000090272   -0.000132373
     18        1          -0.000003167    0.000011179   -0.000001519
     19        6          -0.000140487   -0.000262104   -0.000036302
     20        6           0.000024521    0.000283453   -0.000165789
     21        1          -0.000007539   -0.000019509   -0.000006040
     22       16          -0.000155238   -0.000139488    0.000080042
     23        7          -0.000026737   -0.000111225    0.000132503
     24        7           0.000006838    0.000000906   -0.000051828
     25        6           0.000994388   -0.003544578    0.001936578
     26        6           0.003017594   -0.002159056   -0.002820535
     27        6          -0.000040860   -0.005479454    0.002609133
     28        1          -0.000221832   -0.000193179    0.000048027
     29        6           0.002279495    0.000288437    0.001455214
     30        1           0.000173633    0.000315077    0.000164143
     31        6           0.000042189    0.004697034    0.000935268
     32        1           0.000239502   -0.000149906    0.000017930
     33        6          -0.000491638    0.004831135   -0.002571977
     34       16          -0.001706086   -0.000276514   -0.001591915
     35        7          -0.000223890    0.002084673   -0.000637390
     36        7          -0.004693543    0.003146211    0.001951050
 -------------------------------------------------------------------
 Cartesian Forces:  Max     0.008737053 RMS     0.002541958

 GradGradGradGradGradGradGradGradGradGradGradGradGradGradGradGradGradGrad
 Berny optimization.
 Internal  Forces:  Max     0.006948354 RMS     0.001443860
 Search for a local minimum.
 Step number   1 out of a maximum of  216
 All quantities printed in internal units (Hartrees-Bohrs-Radians)
 Mixed Optimization -- RFO/linear search
 Second derivative matrix not updated -- first step.
     Eigenvalues ---    0.01251   0.01409   0.01467   0.01597   0.01610
     Eigenvalues ---    0.01619   0.01631   0.01642   0.01687   0.01692
     Eigenvalues ---    0.01703   0.01703   0.01756   0.01787   0.01794
     Eigenvalues ---    0.01810   0.01869   0.01886   0.01891   0.01941
     Eigenvalues ---    0.01943   0.01956   0.01960   0.01967   0.02020
     Eigenvalues ---    0.02037   0.02057   0.02069   0.02073   0.02149
     Eigenvalues ---    0.02158   0.02541   0.02567   0.15300   0.15970
     Eigenvalues ---    0.15998   0.15998   0.15999   0.16000   0.16000
     Eigenvalues ---    0.16000   0.22366   0.22370   0.23671   0.23674
     Eigenvalues ---    0.23686   0.23712   0.23817   0.24337   0.24351
     Eigenvalues ---    0.24925   0.24944   0.24975   0.24985   0.24985
     Eigenvalues ---    0.24997   0.24997   0.25000   0.25000   0.25000
     Eigenvalues ---    0.25000   0.30384   0.30394   0.33114   0.33530
     Eigenvalues ---    0.34111   0.34981   0.35017   0.35032   0.35069
     Eigenvalues ---    0.35142   0.35735   0.35861   0.35902   0.36084
     Eigenvalues ---    0.36697   0.39000   0.39594   0.40150   0.40452
     Eigenvalues ---    0.41115   0.41617   0.42377   0.43151   0.44256
     Eigenvalues ---    0.45225   0.45259   0.45842   0.46086   0.46613
     Eigenvalues ---    0.46625   0.46742   0.49224   0.49598   0.50845
     Eigenvalues ---    0.50954   0.61143   0.62153   0.62164   0.62842
     Eigenvalues ---    0.91930   0.953531000.000001000.000001000.00000
     Eigenvalues --- 1000.000001000.000001000.000001000.000001000.00000
     Eigenvalues --- 1000.000001000.000001000.000001000.000001000.00000
     Eigenvalues --- 1000.000001000.000001000.000001000.000001000.00000
     Eigenvalues --- 1000.000001000.000001000.000001000.000001000.00000
     Eigenvalues --- 1000.000001000.000001000.000001000.000001000.00000
     Eigenvalues --- 1000.000001000.000001000.000001000.000001000.00000
     Eigenvalues --- 1000.000001000.000001000.000001000.000001000.00000
     Eigenvalues --- 1000.000001000.000001000.000001000.000001000.00000
     Eigenvalues --- 1000.000001000.000001000.000001000.000001000.00000
     Eigenvalues --- 1000.000001000.000001000.000001000.000001000.00000
     Eigenvalues --- 1000.000001000.000001000.000001000.000001000.00000
     Eigenvalues --- 1000.000001000.000001000.000001000.000001000.00000
     Eigenvalues --- 1000.000001000.000001000.000001000.000001000.00000
     Eigenvalues --- 1000.000001000.000001000.000001000.000001000.00000
     Eigenvalues --- 1000.000001000.000001000.000001000.000001000.00000
     Eigenvalues --- 1000.000001000.000001000.000001000.000001000.00000
     Eigenvalues --- 1000.000001000.000001000.000001000.000001000.00000
     Eigenvalues --- 1000.000001000.000001000.000001000.000001000.00000
     Eigenvalues --- 1000.000001000.000001000.000001000.000001000.00000
     Eigenvalues --- 1000.000001000.000001000.000001000.000001000.00000
     Eigenvalues --- 1000.000001000.00000
 RFO step:  Lambda=-3.82535170D-03 EMin= 1.25148750D-02
 Linear search not attempted -- first point.
 Maximum step size (   0.300) exceeded in Quadratic search.
    -- Step size scaled by   0.825
 Iteration  1 RMS(Cart)=  0.06443112 RMS(Int)=  0.00159180
 Iteration  2 RMS(Cart)=  0.00239046 RMS(Int)=  0.00019350
 Iteration  3 RMS(Cart)=  0.00000346 RMS(Int)=  0.00019349
 Iteration  4 RMS(Cart)=  0.00000000 RMS(Int)=  0.00019349
 Variable       Old X    -DE/DX   Delta X   Delta X   Delta X     New X
                                 (Linear)    (Quad)   (Total)
    R1        2.68547  -0.00055   0.00000  -0.00146  -0.00133   2.68415
    R2        2.64284  -0.00550   0.00000  -0.01031  -0.01018   2.63267
    R3        1.91010   0.00187   0.00000   0.00334   0.00334   1.91344
    R4        2.74305   0.00203   0.00000   0.00475   0.00470   2.74776
    R5        2.32056  -0.00079   0.00000  -0.00071  -0.00071   2.31985
    R6        2.61889   0.00445   0.00000   0.00760   0.00755   2.62644
    R7        2.70944  -0.00333   0.00000  -0.00673  -0.00673   2.70271
    R8        2.69663  -0.00308   0.00000  -0.00596  -0.00615   2.69047
    R9        2.77908  -0.00503   0.00000  -0.01226  -0.01224   2.76684
   R10        2.62872  -0.00008   0.00000   0.00020   0.00015   2.62888
   R11        2.61857   0.00160   0.00000   0.00330   0.00331   2.62188
   R12        2.70066  -0.00024   0.00000  -0.00048  -0.00048   2.70019
   R13        2.68949  -0.00230   0.00000  -0.00440  -0.00435   2.68515
   R14        2.30560   0.00695   0.00000   0.00599   0.00599   2.31159
   R15        1.91677   0.00018   0.00000   0.00032   0.00032   1.91708
   R16        2.72696   0.00010   0.00000   0.00019   0.00019   2.72715
   R17        2.66184  -0.00001   0.00000  -0.00002  -0.00002   2.66182
   R18        2.57855  -0.00003   0.00000  -0.00005  -0.00005   2.57851
   R19        2.62636  -0.00010   0.00000  -0.00017  -0.00017   2.62618
   R20        2.58376   0.00005   0.00000   0.00007   0.00007   2.58383
   R21        2.05623   0.00001   0.00000   0.00002   0.00002   2.05625
   R22        2.71266  -0.00002   0.00000  -0.00004  -0.00004   2.71262
   R23        2.48091   0.00006   0.00000   0.00007   0.00007   2.48098
   R24        2.05563   0.00000   0.00000   0.00000   0.00000   2.05563
   R25        2.48676   0.00010   0.00000   0.00013   0.00013   2.48689
   R26        3.29736   0.00000   0.00000   0.00000   0.00000   3.29736
   R27        2.04300  -0.00002   0.00000  -0.00004  -0.00004   2.04295
   R28        3.23244   0.00028   0.00000   0.00067   0.00067   3.23311
   R29        2.73173  -0.00183   0.00000  -0.00397  -0.00407   2.72766
   R30        2.62090   0.00149   0.00000   0.00228   0.00229   2.62320
   R31        2.58974  -0.00028   0.00000  -0.00074  -0.00076   2.58898
   R32        2.65084   0.00396   0.00000   0.00749   0.00745   2.65830
   R33        2.57553   0.00276   0.00000   0.00447   0.00441   2.57993
   R34        2.05647  -0.00004   0.00000  -0.00010  -0.00010   2.05637
   R35        2.72195  -0.00243   0.00000  -0.00484  -0.00477   2.71718
   R36        2.47747   0.00452   0.00000   0.00600   0.00602   2.48349
   R37        2.05706  -0.00019   0.00000  -0.00043  -0.00043   2.05663
   R38        2.47683   0.00161   0.00000   0.00193   0.00200   2.47883
   R39        2.04236  -0.00003   0.00000  -0.00007  -0.00007   2.04229
   R40        3.24073  -0.00057   0.00000  -0.00170  -0.00167   3.23907
   R41        3.29706   0.00013   0.00000   0.00062   0.00062   3.29768
    A1        1.96338  -0.00071   0.00000  -0.00167  -0.00206   1.96132
    A2        2.11202   0.00473   0.00000   0.03100   0.03022   2.14224
    A3        2.17718  -0.00359   0.00000  -0.01230  -0.01350   2.16369
    A4        1.79367   0.00195   0.00000   0.00529   0.00542   1.79909
    A5        2.17173  -0.00027   0.00000  -0.00033  -0.00053   2.17120
    A6        2.31779  -0.00168   0.00000  -0.00491  -0.00513   2.31266
    A7        1.86722   0.00071   0.00000   0.00064   0.00085   1.86808
    A8        2.12754  -0.00252   0.00000  -0.00721  -0.00736   2.12017
    A9        2.28805   0.00181   0.00000   0.00691   0.00677   2.29483
   A10        1.89151   0.00032   0.00000   0.00309   0.00296   1.89447
   A11        2.49082  -0.00155   0.00000  -0.00338  -0.00344   2.48737
   A12        1.89002   0.00132   0.00000   0.00389   0.00379   1.89381
   A13        1.90772  -0.00226   0.00000  -0.00697  -0.00694   1.90077
   A14        2.46825   0.00261   0.00000   0.00874   0.00879   2.47704
   A15        1.90135  -0.00032   0.00000  -0.00137  -0.00146   1.89989
   A16        1.86809  -0.00095   0.00000  -0.00142  -0.00151   1.86657
   A17        2.29381   0.00080   0.00000   0.00184   0.00184   2.29565
   A18        2.12122   0.00015   0.00000  -0.00025  -0.00026   2.12096
   A19        1.79250   0.00110   0.00000   0.00301   0.00280   1.79530
   A20        2.33048  -0.00430   0.00000  -0.01313  -0.01342   2.31706
   A21        2.15973   0.00323   0.00000   0.01135   0.01106   2.17079
   A22        1.97142  -0.00112   0.00000  -0.00266  -0.00271   1.96872
   A23        2.14476   0.00057   0.00000   0.00188   0.00180   2.14656
   A24        2.16577   0.00057   0.00000   0.00182   0.00173   2.16750
   A25        1.97147   0.00006   0.00000   0.00019   0.00019   1.97166
   A26        2.11901   0.00006   0.00000   0.00019   0.00019   2.11920
   A27        2.19271  -0.00012   0.00000  -0.00038  -0.00038   2.19233
   A28        1.95867   0.00000   0.00000  -0.00002  -0.00002   1.95865
[...]
 970,-0.00017568,-0.00032920,-0.00018101,0.00002629,0.00003455,0.000055
 95,-0.00001337,0.00023671,-0.00023385,-0.08736828,0.01837763,-0.299994
 77,-0.02428813,-0.03709235,-0.02556108,-0.00715666,-0.01598481,-0.0047
 6831,0.00027919,-0.00017095,-0.00015985,0.01048950,0.00911633,0.027387
 20,-0.00010185,0.00027566,-0.00003232,0.21863803,0.06264549,0.60253293
 ,-0.00012478,0.00003406,0.00010868,-0.00012616,0.00009284,0.00001225,0
 .00226000,-0.00073665,-0.00086262,-0.00012823,0.00004502,-0.00003616,0
 .00004950,0.00006026,-0.00000468,0.00002979,-0.00002801,0.00006123,0.0
 0022133,-0.00002371,0.00006316,-0.00008279,-0.00002168,0.00001152,-0.0
 0001658,-0.00000537,0.00002808,-0.00015902,-0.00003166,-0.00003622,0.0
 0000771,-0.00000662,0.00000239,0.00005277,0.00003607,-0.00004115,-0.00
 000254,-0.00002248,0.00000183,0.00000988,0.00000454,0.00004792,0.00000
 374,-0.00000803,0.00000238,0.00000063,0.00000182,-0.00000171,-0.000001
 37,0.00000265,-0.00000468,-0.00000021,0.00000052,-0.00000140,0.0000050
 3,0.00000664,0.00000111,-0.00000369,0.00004436,-0.00001838,-0.00000228
 ,-0.00000066,-0.00000172,0.00001807,-0.00002762,-0.00002088,-0.0000034
 8,0.00000566,0.00000291,-0.00000149,0.00001320,-0.00001189,0.00023643,
 -0.00565909,-0.00190096,0.00325471,-0.00014172,-0.00257175,-0.00024215
 ,0.00024838,0.00024715,0.00007829,-0.00000072,-0.00003827,-0.00061382,
 0.00008285,0.00005137,0.00031273,-0.00009203,-0.00013644,-0.08865784,-
 0.09863728,-0.09481467,0.08830646,-0.00005958,-0.00043540,0.00006616,0
 .00005419,0.00022584,-0.00018859,-0.00115446,0.00046856,-0.00101923,0.
 00003645,0.00011820,-0.00011472,0.00003958,0.00008541,0.00005647,0.000
 02070,-0.00001740,0.00008229,0.00004254,0.00017656,0.00013584,-0.00000
 975,-0.00011212,0.00000295,-0.00003877,-0.00012092,-0.00001965,-0.0000
 2439,-0.00019712,-0.00000969,-0.00000432,-0.00000107,-0.00000283,-0.00
 002655,-0.00004884,0.00002071,-0.00000577,-0.00001950,0.00000473,0.000
 01832,-0.00000296,0.00004225,0.00000038,-0.00000324,0.00000822,-0.0000
 0026,0.00000118,-0.00000097,-0.00000362,-0.00000313,-0.00000746,-0.000
 00028,-0.00000018,-0.00000039,0.00000229,0.00000592,0.00000357,0.00000
 786,0.00004047,-0.00002306,-0.00000071,-0.00000157,-0.00000175,-0.0000
 1760,-0.00001003,-0.00000800,0.00000270,0.00000122,0.00000036,-0.00000
 059,0.00001196,-0.00001268,0.00394639,0.00942948,0.00469602,-0.0006558
 4,0.00026070,0.00171481,0.00019464,0.00046680,-0.00024589,-0.00003604,
 -0.00001602,-0.00000113,-0.00008591,-0.00042847,-0.00042456,-0.0001050
 6,0.00004678,0.00002075,-0.09944375,-0.18245207,-0.12270698,0.10402909
 ,0.18637681,0.00018726,0.00030674,0.00005101,0.00004489,-0.00008610,0.
 00003146,-0.00050711,0.00008274,0.00142625,-0.00002926,-0.00008882,-0.
 00012956,0.00001374,0.00011230,-0.00002951,0.00002019,-0.00004514,0.00
 010660,0.00000841,-0.00003635,0.00025820,0.00000038,-0.00003076,-0.000
 05200,0.00005642,0.00006671,0.00006500,-0.00004470,-0.00003411,-0.0002
 2289,0.00000050,-0.00000883,0.00001765,0.00001265,0.00018574,-0.000069
 57,-0.00001218,-0.00003873,0.00000490,0.00003670,0.00000640,0.00008090
 ,-0.00000465,-0.00001374,0.00000454,-0.00000004,0.00000436,-0.00000290
 ,0.00000084,0.00000930,-0.00000660,-0.00000077,0.00000166,-0.00000320,
 0.00000421,0.00001414,0.00000223,0.00001251,0.00007283,-0.00003992,-0.
 00000175,-0.00000170,-0.00000455,-0.00002935,-0.00003421,-0.00001330,0
 .00000561,0.00000826,0.00000099,-0.00000038,0.00002339,-0.00002186,-0.
 01011623,-0.02053367,-0.00619871,-0.00213209,0.00307533,-0.00395156,0.
 00029484,-0.00009941,0.00044208,-0.00000836,0.00009135,-0.00000661,0.0
 0019189,0.00001405,-0.00016910,-0.00012603,0.00005554,0.00001703,-0.09
 411386,-0.12057741,-0.16450062,0.09818322,0.12849269,0.16502351,-0.005
 75341,-0.02064044,-0.00965238,0.00125699,0.00454759,-0.00491864,-0.079
 42939,-0.06796976,-0.02924731,0.00142312,-0.01170505,0.00465453,0.0070
 5569,0.00354335,0.00051304,0.00103774,-0.00317699,0.00206792,-0.002516
 31,0.00117611,0.00006252,0.00004592,-0.00043938,-0.00138573,0.00026525
 ,-0.00111505,0.00090003,0.00088317,-0.00002442,-0.00016622,0.00002117,
 -0.00001290,0.00001124,-0.00078788,-0.00005312,0.00071370,-0.00013858,
 -0.00039733,0.00069310,0.00020317,-0.00001788,-0.00000478,0.00004696,0
 .00012871,0.00010281,-0.00000115,-0.00000049,0.00000277,-0.00003185,-0
 .00028859,0.00014781,-0.00000038,-0.00000083,-0.00000708,-0.00071309,0
 .00175682,0.00024955,-0.00002033,-0.00014123,0.00001816,0.00000537,0.0
 0000275,0.00000475,-0.00016920,0.00008196,-0.00038384,-0.00010679,0.00
 021816,-0.00042610,0.00002563,-0.00001254,-0.00007232,0.00366118,-0.00
 930163,0.00139084,-0.06550041,-0.01530988,-0.01222505,0.00591874,-0.00
 045520,-0.00514390,0.00067151,0.00027128,-0.00039190,-0.00036599,0.000
 32703,-0.00190118,-0.00080828,0.00025797,0.00046535,0.00023705,-0.0177
 6659,-0.01104486,0.00052644,0.00007820,0.00063056,0.18741031,-0.013310
 87,-0.01594033,-0.01733098,-0.00018995,0.00887349,-0.00668360,-0.07181
 051,-0.23360114,-0.02794909,-0.01651904,-0.04918511,0.00175596,0.00608
 976,0.01199365,0.01055249,-0.00122753,-0.00960718,0.00612665,-0.001737
 43,-0.00089912,-0.00628178,-0.00138683,-0.00047842,-0.00261706,0.00151
 971,0.00051173,0.00378701,0.00126135,0.00282279,0.00169956,-0.00002636
 ,-0.00014422,0.00007168,0.00032053,-0.00086496,0.00064855,0.00023708,-
 0.00161407,0.00176972,0.00007540,0.00014130,0.00025783,0.00023231,0.00
 035871,0.00027288,0.00000150,-0.00000178,0.00000433,-0.00011835,-0.000
 90730,0.00046843,-0.00001026,-0.00000683,-0.00001864,0.00175604,0.0040
 4761,-0.00003972,-0.00013236,-0.00045144,0.00005344,0.00000648,0.00000
 578,0.00001391,-0.00035143,0.00020270,-0.00113650,-0.00028682,0.000681
 00,-0.00134900,-0.00008592,-0.00000949,-0.00016777,-0.01867487,-0.0400
 7964,-0.00956472,-0.02150580,-0.21419871,0.07884588,0.00231739,0.02826
 688,-0.01121503,0.00003926,0.00071512,0.00011761,-0.00802021,-0.011194
 26,-0.01128723,0.00032230,-0.00012060,0.00003651,-0.01815151,-0.033011
 31,-0.01081565,0.00024024,-0.00373447,0.00404034,0.15025587,0.62802798
 ,-0.01592469,-0.03649022,-0.00585525,-0.00086038,0.00573271,-0.0055342
 1,-0.02601882,-0.01801558,-0.09888902,0.00880740,0.01442645,0.01420699
 ,-0.00164627,0.00391842,-0.00199064,0.00039251,0.00099721,0.00146337,0
 .00254449,0.00136602,0.00259166,-0.00057174,-0.00012113,-0.00068078,-0
 .00135614,-0.00311347,-0.00059564,-0.00126270,-0.00166083,-0.00093184,
 0.00002304,0.00010845,-0.00001128,0.00041026,-0.00025769,0.00022479,0.
 00014936,0.00010761,0.00002709,-0.00008657,0.00001309,-0.00002771,0.00
 001400,0.00000115,0.00000120,0.00000078,-0.00000162,0.00000170,0.00000
 323,0.00002466,-0.00000697,0.00000114,0.00000596,0.00000048,0.00024959
 ,-0.00003985,-0.00068950,0.00001137,0.00002854,0.00002444,0.00000110,0
 .00000377,0.00000240,-0.00001288,0.00000068,-0.00008436,0.00000664,-0.
 00002429,0.00002237,-0.00000960,0.00002243,0.00001349,0.00939636,0.015
 09543,0.01792742,-0.00693078,0.09501248,-0.15510161,-0.00751475,-0.018
 50226,0.00410347,-0.00019317,0.00072729,-0.00039816,0.00523740,0.01064
 759,0.00489988,0.00040986,-0.00013349,0.00012175,-0.01061053,-0.009722
 04,-0.00947306,0.00048843,0.00362892,-0.00153130,0.10664114,-0.0587702
 8,0.42788963,0.00191811,-0.00113926,0.00105019,0.00090674,-0.00009636,
 -0.00015243,-0.00993243,-0.00857022,-0.00869806,0.00032780,0.00304355,
 -0.00097344,-0.00095589,-0.00041239,-0.00072206,0.00015289,0.00078126,
 -0.00007586,0.00127990,-0.00032911,0.00245736,0.00064715,-0.00051321,-
 0.00035079,-0.00037285,-0.00030703,-0.00023418,-0.00233251,-0.00157006
 ,-0.00050306,0.00006849,-0.00000355,0.00003505,-0.00009174,0.00035995,
 -0.00002910,-0.00006285,0.00000363,-0.00015620,0.00015032,-0.00000334,
 0.00033401,-0.00003460,-0.00008663,0.00000615,0.00000177,0.00001534,-0
 .00001260,0.00001110,0.00011309,-0.00008807,0.00000445,0.00000375,-0.0
 0001108,-0.00016963,-0.00035143,-0.00001328,0.00005788,0.00038649,-0.0
 0017601,0.00001796,-0.00001767,-0.00002942,-0.00011840,-0.00014647,0.0
 0004674,0.00003095,-0.00002871,0.00015119,-0.00000181,0.00010582,-0.00
 007695,0.00733666,-0.00439550,0.00089337,-0.00065515,0.00526000,-0.021
 73406,-0.00020683,0.00203521,-0.00204083,-0.00058703,0.00033591,0.0002
 7327,-0.00083855,-0.00193319,0.00030470,-0.00068592,0.00031387,0.00018
 942,-0.03999887,-0.03845427,0.00598261,-0.00336847,-0.00758263,0.00660
 384,-0.05233389,-0.00629521,-0.05189817,0.08773624,-0.00167239,-0.0053
 2480,0.00179001,-0.00037238,0.00259051,-0.00235013,-0.00942856,-0.0011
 8990,-0.02701125,-0.00029089,-0.00067583,-0.00041097,0.00070548,0.0009
 9221,0.00053986,0.00014055,-0.00045879,0.00069830,-0.00113216,-0.00318
 739,0.00015515,-0.00006826,0.00057862,0.00013492,-0.00007108,-0.000971
 24,0.00049075,0.00002470,-0.00152892,0.00000348,-0.00000096,-0.0001183
 2,0.00014783,0.00007785,-0.00002441,0.00005704,-0.00008643,-0.00036576
 ,0.00008038,0.00028933,0.00003012,0.00075493,-0.00000852,-0.00011089,0
 .00006581,0.00000215,0.00003726,-0.00002470,-0.00000990,0.00003191,-0.
 00004681,-0.00000971,0.00000704,-0.00002534,0.00008163,0.00020358,0.00
 000022,0.00009278,0.00067324,-0.00033040,-0.00002732,-0.00000977,-0.00
 003393,-0.00014658,-0.00029421,-0.00021133,0.00004063,0.00012301,-0.00
 001400,0.00000049,0.00023088,-0.00020251,0.00478918,-0.03555557,0.0501
 6005,-0.00221989,-0.00342148,0.00210771,-0.00312820,-0.00598010,-0.003
 18632,0.00024869,-0.00012607,0.00007627,0.00438794,0.00086523,0.010519
 63,0.00034689,0.00019794,0.00000673,-0.02866748,-0.18183338,0.05487717
 ,0.00031730,-0.01061175,0.00697647,-0.02248515,-0.05553370,-0.03790113
 ,0.06153522,0.28841995,0.00150853,0.00318447,0.00311708,0.00008867,-0.
 00160838,0.00260158,-0.00794786,-0.02472686,-0.00351187,0.00185433,0.0
 0837143,-0.00253970,-0.00167597,-0.00238622,-0.00289996,0.00047696,0.0
 0237382,-0.00086282,0.00315122,0.00225911,0.00676019,-0.00073244,-0.00
 102817,-0.00008512,-0.00043825,-0.00013369,-0.00121561,-0.00186881,-0.
 00422481,-0.00294864,0.00003317,0.00014062,0.00002205,0.00021365,0.000
 79679,-0.00032317,-0.00007845,0.00031666,-0.00048278,0.00008459,-0.000
 01662,0.00025971,-0.00005987,-0.00013935,-0.00004786,-0.00000146,0.000
 01013,-0.00001041,0.00001698,0.00027504,-0.00018335,0.00000018,0.00001
 019,-0.00000063,-0.00038445,-0.00113542,-0.00008436,0.00007389,0.00044
 119,-0.00018197,-0.00002070,-0.00000764,-0.00001291,0.00004731,-0.0002
 1073,0.00021438,0.00009215,-0.00019450,0.00039035,0.00001271,0.0000766
 4,-0.00003822,-0.00698802,0.02609454,-0.03215886,-0.01536115,0.0217779
 6,-0.05301910,0.00237643,0.01038624,-0.00273059,0.00034905,0.00030493,
 -0.00014680,-0.00510345,-0.00610195,-0.00851722,0.00016145,-0.00008030
 ,-0.00036695,-0.00243264,0.02899837,-0.06085723,-0.00014014,-0.0137691
 1,0.00796578,-0.03797818,0.00470611,-0.13445805,0.07116640,-0.05021124
 ,0.27040429,0.00021267,-0.00018718,0.00012591,0.00005829,0.00024519,-0
 .00001549,0.00115350,-0.00159331,0.00030642,-0.00024918,0.00024892,-0.
 00028556,-0.00028793,-0.00017214,0.00017850,-0.00001309,0.00020264,-0.
 00011689,0.00016550,-0.00001693,0.00009194,0.00005663,-0.00006259,0.00
 013036,-0.00002124,-0.00010528,-0.00002754,-0.00020802,0.00000765,-0.0
 0001608,-0.00001084,0.00001345,-0.00000098,-0.00024695,0.00027124,0.00
 004882,-0.00000007,0.00001271,-0.00003061,-0.00000337,-0.00000817,0.00
 002022,-0.00000318,-0.00000194,0.00000408,0.00000007,-0.00000057,0.000
 00012,-0.00000298,0.00001112,-0.00001365,0.00000091,0.00000009,0.00000
 133,0.00002588,-0.00008567,-0.00000866,0.00001289,0.00003479,-0.000014
 00,-0.00000155,-0.00000041,-0.00000013,-0.00000108,0.00000037,0.000013
 34,0.00000790,-0.00001711,0.00002148,0.00000089,0.00000372,-0.00000396
 ,-0.07113324,-0.03190565,-0.00299533,0.01634582,-0.01339523,0.01223250
 ,0.01105561,-0.02598606,-0.03007848,0.00111490,-0.00351086,-0.00196284
 ,-0.10919997,-0.01914893,-0.12702304,-0.00537252,0.00566657,0.00023385
 ,-0.00005356,0.01429235,-0.00643057,-0.00240507,0.00059509,0.00199085,
 -0.00055257,-0.00019258,-0.00364897,0.00565494,-0.00204804,-0.00243251
 ,0.16661688,0.00015411,0.00038453,0.00026870,0.00016546,0.00008436,0.0
 0034807,0.00021060,-0.00005210,0.00192599,0.00007622,-0.00127438,0.001
 10115,-0.00001511,-0.00076515,0.00036066,-0.00022085,0.00008479,-0.000
 68062,-0.00122014,-0.00066446,-0.00251228,0.00026544,0.00051448,0.0002
 7830,-0.00006576,-0.00000499,-0.00014735,0.00102337,0.00121858,0.00146
 727,-0.00001006,0.00002166,-0.00005787,0.00026215,0.00056496,-0.000099
 40,0.00006254,0.00019333,0.00000615,-0.00020051,-0.00003679,-0.0005028
 2,0.00002104,0.00008983,-0.00002543,-0.00000043,-0.00002259,0.00001823
 ,0.00000318,-0.00007238,0.00006917,0.00000328,-0.00000882,0.00001658,-
 0.00001239,-0.00001005,0.00002268,-0.00005931,-0.00045511,0.00023810,0
 .00001302,0.00001175,0.00002309,0.00010608,0.00023111,0.00007720,-0.00
 002470,-0.00001902,-0.00004404,0.00000375,-0.00013738,0.00012839,-0.04
 240657,-0.25400877,0.05475166,-0.01819835,-0.04421492,0.00372330,-0.00
 744116,0.03599329,-0.02390131,-0.00326019,-0.00443793,-0.00220240,-0.0
 2438907,-0.11814001,-0.00990400,0.01463467,0.00738460,0.02591823,0.011
 47900,-0.01303269,0.03935419,0.00095452,-0.00000753,-0.00034958,-0.004
 26475,-0.00606396,-0.00524502,0.00000181,0.01319808,-0.00508266,0.0636
 3521,0.39389440,-0.00016498,-0.00062662,0.00032767,0.00005716,0.000560
 63,-0.00035100,-0.00123393,-0.00281811,0.00071895,-0.00013860,0.001559
 16,-0.00191745,0.00004058,-0.00005451,-0.00014136,0.00024456,0.0004264
 8,0.00024089,0.00112284,0.00064151,0.00252519,-0.00014913,-0.00058182,
 0.00013360,-0.00006288,-0.00025332,0.00007528,-0.00088638,-0.00120076,
 -0.00150151,0.00001901,0.00000453,0.00003176,0.00005738,-0.00007338,-0
 .00013891,-0.00007124,-0.00012355,-0.00007532,0.00018642,0.00000431,0.
 00047888,-0.00001575,-0.00008334,0.00002835,0.00000026,0.00001746,-0.0
 0001474,-0.00000776,0.00008835,-0.00009613,-0.00000146,0.00000795,-0.0
 0001084,-0.00007251,-0.00016750,0.00001304,0.00006487,0.00048411,-0.00
 023455,-0.00001168,-0.00001246,-0.00002154,-0.00007676,-0.00020144,-0.
 00003869,0.00002765,-0.00002342,0.00009817,-0.00000441,0.00012760,-0.0
 0012138,0.00602294,0.08230308,-0.11430681,0.01634950,0.01633333,0.0450
 0722,-0.04594608,-0.07258236,-0.02761220,-0.00217626,-0.00285811,-0.00
 026768,-0.12256638,0.00392688,-0.38005229,-0.00742820,0.00231854,-0.02
 884164,-0.00402319,0.04674903,-0.05280298,0.00167944,-0.00129171,0.002
 16217,-0.00017588,0.00545184,-0.00420926,-0.00418158,-0.01046565,0.005
 21175,0.16388558,-0.09800108,0.59806440,0.00186169,-0.00189221,0.00048
 458,0.00077848,-0.00007677,0.00060931,-0.00346801,-0.00392283,-0.00013
 577,0.00062395,0.00152880,-0.00017121,-0.00077173,-0.00098693,-0.00001
 062,0.00011946,0.00072454,-0.00056476,0.00002679,-0.00000797,0.0002040
 1,0.00009815,0.00003657,0.00032791,0.00002704,-0.00015761,-0.00025748,
 0.00004126,-0.00010682,-0.00002239,0.00000297,0.00004141,-0.00001639,-
 0.00360475,0.00090900,0.00068239,-0.00000660,0.00014297,-0.00012121,-0
 .00005066,-0.00002343,-0.00008701,-0.00000730,-0.00000260,-0.00001557,
 -0.00000121,-0.00000504,0.00000418,0.00000342,0.00004595,-0.00002764,-
 0.00000013,-0.00000004,0.00000637,-0.00010660,-0.00028688,0.00000672,0
 .00001747,-0.00002981,0.00002644,-0.00000357,0.00000262,0.00000552,0.0
 0003084,0.00004043,0.00009191,0.00001535,-0.00005889,0.00008664,0.0000
 0781,-0.00002445,0.00002772,0.00421341,-0.01137446,-0.02285107,-0.0966
 0774,-0.02914679,-0.07790459,-0.07212130,-0.04739307,-0.00407816,-0.00
 276714,0.01322078,-0.00065717,0.02685428,-0.01606391,0.00713184,0.0014
 8473,-0.00345774,-0.00226650,-0.00085226,-0.00379565,-0.00091733,0.000
 56645,0.00018746,-0.00117276,-0.00146589,0.01535860,-0.00624191,0.0064
 4408,-0.00120691,0.00193667,-0.01271686,0.00871387,-0.00036318,0.15133
 412,-0.00367048,-0.00953492,0.00051083,0.00114832,0.00267125,0.0012043
 8,0.00121869,0.00816924,-0.00561163,-0.00072043,-0.00466264,0.00227287
 ,0.00098153,0.00060935,0.00167025,0.00001286,-0.00106314,0.00102964,-0
 .00086719,-0.00047225,-0.00191036,-0.00003611,-0.00020304,0.00004622,-
 0.00010437,-0.00031978,0.00015377,0.00055705,0.00085672,0.00080113,0.0
 0000124,0.00001463,-0.00001323,0.00171503,-0.00024214,0.00126435,0.000
 04919,-0.00022800,0.00031852,-0.00001069,-0.00001470,-0.00002419,0.000
 05981,0.00009778,0.00007300,0.00000034,-0.00000758,0.00000633,-0.00003
 508,-0.00020118,0.00007896,0.00000084,-0.00000444,0.00000386,0.0002178
 9,0.00068051,-0.00002410,-0.00002787,-0.00010965,0.00003499,0.00000558
 ,0.00000107,0.00000808,-0.00002867,0.00012313,-0.00019469,-0.00005880,
 0.00010383,-0.00024168,-0.00001675,-0.00001933,-0.00002301,-0.00539503
 ,0.03250083,-0.02772282,-0.02118686,-0.10149813,-0.01813427,-0.0404482
 6,-0.34153606,0.13868429,0.00403310,-0.00599164,0.00983294,-0.03459477
 ,-0.06424688,-0.01080848,-0.00368219,-0.00452342,-0.00283925,-0.001481
 25,-0.00623731,0.00206368,-0.00077670,0.00050790,-0.00166179,0.0129333
 7,-0.00900074,0.03813009,-0.00205866,-0.00085728,0.00053344,0.01319753
 ,-0.01044073,0.03041438,0.07906778,0.51507875,0.00200341,0.00515242,0.
 00312793,-0.00043667,-0.00200230,0.00113777,-0.00452744,-0.01912184,0.
 00233592,0.00175537,0.00816530,-0.00220761,-0.00169972,-0.00349148,-0.
 00190361,0.00004553,0.00289387,-0.00226509,0.00094132,0.00034120,0.002
 12633,0.00038971,0.00023722,0.00078155,-0.00030469,0.00001107,-0.00063
 090,-0.00059099,-0.00094167,-0.00066276,0.00001814,0.00009220,-0.00003
 578,-0.00006630,-0.00095421,-0.00340879,-0.00004124,0.00056403,-0.0005
 9690,-0.00009683,-0.00005688,-0.00021575,-0.00006866,-0.00009076,-0.00
 010381,-0.00000048,-0.00000770,0.00000442,0.00004163,0.00029147,-0.000
 14133,0.00000551,0.00000156,0.00001084,-0.00042523,-0.00134886,0.00002
 205,0.00002481,0.00003057,0.00005553,0.00000291,0.00000044,0.00000110,
 0.00015073,-0.00001474,0.00039064,0.00008625,-0.00024164,0.00043540,0.
 00002067,-0.00004281,0.00009714,-0.02796967,-0.04348744,-0.01969813,-0
 .08466403,-0.03904757,-0.24676721,-0.01002437,0.12053734,-0.18453239,0
 .00721259,0.03400155,-0.01696280,0.02293647,0.03785701,0.05733734,-0.0
 0207333,-0.00224628,-0.00005204,-0.00288506,-0.00401431,-0.00343299,-0
 .00034936,0.00087166,-0.00070656,-0.00414449,0.04454632,-0.05305350,0.
 00266294,0.00278301,0.01073701,-0.00418000,0.01865877,-0.04236104,0.10
 625053,-0.15992650,0.50113803\\0.00000003,-0.00000012,-0.00000021,-0.0
 0000022,-0.00000057,-0.00000031,-0.00000032,0.00000042,-0.00000051,0.0
 0000010,0.00000009,0.00000040,-0.00000024,0.00000025,-0.00000042,0.000
 00022,-0.00000015,0.00000059,0.00000001,0.00000062,-0.00000079,0.00000
 049,-0.00000014,-0.00000009,0.00000013,-0.00000009,0.00000035,0.000000
 07,0.00000017,0.00000045,-0.00000002,0.00000009,0.00000018,-0.00000024
 ,-0.00000022,0.00000007,0.00000032,-0.00000013,0.00000036,0.00000061,-
 0.00000010,0.00000022,0.00000068,0.00000005,0.00000039,0.00000078,0.00
 000002,0.00000041,0.00000052,0.00000010,0.00000034,0.00000059,0.000000
 20,0.00000028,0.00000033,-0.00000011,0.00000007,0.00000039,-0.00000016
 ,0.00000031,0.00000056,-0.00000031,0.00000037,0.00000034,-0.00000027,0
 .00000022,0.00000046,0.00000012,0.00000014,0.00000063,-0.00000010,0.00
 000037,-0.00000051,-0.00000019,-0.00000029,0.00000005,0.00000012,-0.00
 000009,-0.00000045,-0.00000083,-0.00000017,-0.00000065,-0.00000012,-0.
 00000022,-0.00000070,0.00000024,-0.00000006,-0.00000070,-0.00000007,-0
 .00000043,-0.00000077,0.00000035,-0.00000021,-0.00000048,0.00000030,-0
 .00000036,-0.00000053,-0.00000007,-0.00000027,-0.00000002,0.00000032,-
 0.00000009,-0.00000067,0.00000017,-0.00000067,-0.00000078,0.00000014,-
 0.00000035\\\@


 HE THAT WALD REACHE THE SWEITE ROSE
 SULD NOW AND THEN BE SCRATCHED WT THE SCHARPE BREERES.
 -- PROVERBS AND REASONS OF THE YEAR 1585
           AS REPRINTED IN PAISLEY MAGAZINE 1828.
 Job cpu time:  0 days  4 hours 42 minutes 16.0 seconds.
 File lengths (MBytes):  RWF=   1251 Int=      0 D2E=      0 Chk=     24 Scr=      1
 Normal termination of Gaussian 09 at Wed Sep  6 07:56:00 2023.
