 Entering Link 1 = C:\G09W\l1.exe PID=      3448.
  
 Copyright (c) 1988,1990,1992,1993,1995,1998,2003,2009,2010,
            Gaussian, Inc.  All Rights Reserved.
  
 This is part of the Gaussian(R) 09 program.  It is based on
 the Gaussian(R) 03 system (copyright 2003, Gaussian, Inc.),
 the Gaussian(R) 98 system (copyright 1998, Gaussian, Inc.),
 the Gaussian(R) 94 system (copyright 1995, Gaussian, Inc.),
 the Gaussian 92(TM) system (copyright 1992, Gaussian, Inc.),
 the Gaussian 90(TM) system (copyright 1990, Gaussian, Inc.),
 the Gaussian 88(TM) system (copyright 1988, Gaussian, Inc.),
 the Gaussian 86(TM) system (copyright 1986, Carnegie Mellon
 University), and the Gaussian 82(TM) system (copyright 1983,
 Carnegie Mellon University). Gaussian is a federally registered
 trademark of Gaussian, Inc.
  
 This software contains proprietary and confidential information,
 including trade secrets, belonging to Gaussian, Inc.
  
 This software is provided under written license and may be
 used, copied, transmitted, or stored only in accord with that
 written license.
  
 The following legend is applicable only to US Government
 contracts under FAR:
  
                    RESTRICTED RIGHTS LEGEND
  
 Use, reproduction and disclosure by the US Government is
 subject to restrictions as set forth in subparagraphs (a)
 and (c) of the Commercial Computer Software - Restricted
 Rights clause in FAR 52.227-19.
  
 Gaussian, Inc.
 340 Quinnipiac St., Bldg. 40, Wallingford CT 06492
  
  
 ---------------------------------------------------------------
 Warning -- This program may not be used in any manner that
 competes with the business of Gaussian, Inc. or will provide
 assistance to any competitor of Gaussian, Inc.  The licensee
 of this program is prohibited from giving any competitor of
 Gaussian, Inc. access to this program.  By using this program,
 the user acknowledges that Gaussian, Inc. is engaged in the
 business of creating and licensing software in the field of
 computational chemistry and represents and warrants to the
 licensee that it is not a competitor of Gaussian, Inc. and that
 it will not use this program in any manner prohibited above.
 ---------------------------------------------------------------
  

 Cite this work as:
 Gaussian 09, Revision B.01,
 M. J. Frisch, G. W. Trucks, H. B. Schlegel, G. E. Scuseria, 
 M. A. Robb, J. R. Cheeseman, G. Scalmani, V. Barone, B. Mennucci, 
 G. A. Petersson, H. Nakatsuji, M. Caricato, X. Li, H. P. Hratchian, 
 A. F. Izmaylov, J. Bloino, G. Zheng, J. L. Sonnenberg, M. Hada, 
 M. Ehara, K. Toyota, R. Fukuda, J. Hasegawa, M. Ishida, T. Nakajima, 
 Y. Honda, O. Kitao, H. Nakai, T. Vreven, J. A. Montgomery, Jr., 
 J. E. Peralta, F. Ogliaro, M. Bearpark, J. J. Heyd, E. Brothers, 
 K. N. Kudin, V. N. Staroverov, T. Keith, R. Kobayashi, J. Normand, 
 K. Raghavachari, A. Rendell, J. C. Burant, S. S. Iyengar, J. Tomasi, 
 M. Cossi, N. Rega, J. M. Millam, M. Klene, J. E. Knox, J. B. Cross, 
 V. Bakken, C. Adamo, J. Jaramillo, R. Gomperts, R. E. Stratmann, 
 O. Yazyev, A. J. Austin, R. Cammi, C. Pomelli, J. W. Ochterski, 
 R. L. Martin, K. Morokuma, V. G. Zakrzewski, G. A. Voth, 
 P. Salvador, J. J. Dannenberg, S. Dapprich, A. D. Daniels, 
 O. Farkas, J. B. Foresman, J. V. Ortiz, J. Cioslowski, 
 and D. J. Fox, Gaussian, Inc., Wallingford CT, 2010.
 
 ******************************************
 Gaussian 09:  IA32W-G09RevB.01 12-Aug-2010
                13-Sep-2023 
 ******************************************
 %nprocshared=6
 Will use up to    6 processors via shared memory.
 %chk=DPP-SUB-7-OPT-FREQ.chk
 ----------------------------------------------------
 # opt=tight freq b3lyp/6-31+g(d,p) geom=connectivity
 ----------------------------------------------------
 1/7=10,14=-1,18=20,19=15,26=3,38=1,57=2/1,3;
 2/9=110,12=2,17=6,18=5,40=1/2;
 3/5=1,6=6,7=111,11=2,16=1,25=1,30=1,71=1,74=-5/1,2,3;
 4//1;
 5/5=2,38=5/2;
 6/7=2,8=2,9=2,10=2,28=1/1;
 7//1,2,3,16;
 1/7=10,14=-1,18=20,19=15/3(2);
 2/9=110/2;
 99//99;
 2/9=110/2;
 3/5=1,6=6,7=111,11=2,16=1,25=1,30=1,71=1,74=-5/1,2,3;
 4/5=5,16=3/1;
 5/5=2,38=5/2;
 7//1,2,3,16;
 1/7=10,14=-1,18=20,19=15/3(-5);
 2/9=110/2;
 6/7=2,8=2,9=2,10=2,19=2,28=1/1;
 99/9=1/99;
 -------
 Energy:
 -------
 Symbolic Z-matrix:
 Charge =  0 Multiplicity = 1
 N                    -1.62548  -1.37583  -0.64729 
 C                    -0.27506  -1.80744  -0.63364 
 C                    -1.7543   -0.00217  -0.63631 
 C                    -0.48745   0.5397   -0.64329 
 C                     0.46925  -0.54826  -0.62889 
 C                     1.73652  -0.00887  -0.67187 
 C                     0.25884   1.7967   -0.72294 
 N                     1.60894   1.36238  -0.73101 
 O                     0.05693  -2.98897  -0.64135 
 O                    -0.06964   2.97674  -0.79075 
 H                     2.41347   1.98313  -0.76067 
 H                    -2.4276   -1.99745  -0.58775 
 C                     4.22593   0.11106  -0.06673 
 C                     5.23076  -0.60979   0.72809 
 C                     5.12826  -1.94125   0.96421 
 H                     5.86851  -2.45798   1.56686 
 C                     4.0014   -2.69294   0.43326 
 H                     3.93579  -3.74906   0.67788 
 C                     3.04495  -2.13086  -0.32819 
 H                     2.20431  -2.71202  -0.69433 
 C                     3.09862  -0.67399  -0.73935 
 N                     4.36689   1.3814   -0.21402 
 C                    -5.2159    0.59228   0.81294 
 C                    -4.22834  -0.1331    0.00126 
 C                    -3.12293   0.64687  -0.71461 
 C                    -3.08349   2.11479  -0.3455 
 H                    -2.25754   2.69808  -0.73931 
 C                    -4.02549   2.68321   0.42905 
 H                    -3.96686   3.74577   0.64583 
 C                    -5.1254    1.93043   1.01275 
 H                    -5.85488   2.45269   1.6237 
 N                    -4.36429  -1.40607  -0.12522 
 C                    -5.50116  -1.94668   0.5787 
 H                    -5.1732   -2.67719   1.32488 
 H                    -6.17936  -2.44348  -0.12218 
 C                     5.53019   1.92239   0.44519 
 H                     6.18847   2.4049   -0.28405 
 H                     5.23198   2.66498   1.19194 
 S                    -6.40587  -0.54988   1.43731 
 S                     6.45252   0.53023   1.29208 
 H                    -3.40292   0.5993   -1.78435 
 H                     3.36806  -0.66675  -1.81325 
 

 GradGradGradGradGradGradGradGradGradGradGradGradGradGradGradGradGradGrad
 Berny optimization.
 Initialization pass.
                           ----------------------------
                           !    Initial Parameters    !
                           ! (Angstroms and Degrees)  !
 --------------------------                            --------------------------
 ! Name  Definition              Value          Derivative Info.                !
 --------------------------------------------------------------------------------
 ! R1    R(1,2)                  1.4178         estimate D2E/DX2                !
 ! R2    R(1,3)                  1.3797         estimate D2E/DX2                !
 ! R3    R(1,12)                 1.0165         estimate D2E/DX2                !
 ! R4    R(2,5)                  1.4627         estimate D2E/DX2                !
 ! R5    R(2,9)                  1.2273         estimate D2E/DX2                !
 ! R6    R(3,4)                  1.3779         estimate D2E/DX2                !
 ! R7    R(3,25)                 1.5168         estimate D2E/DX2                !
 ! R8    R(4,5)                  1.4488         estimate D2E/DX2                !
 ! R9    R(4,7)                  1.464          estimate D2E/DX2                !
 ! R10   R(5,6)                  1.378          estimate D2E/DX2                !
 ! R11   R(6,8)                  1.3784         estimate D2E/DX2                !
 ! R12   R(6,21)                 1.5173         estimate D2E/DX2                !
 ! R13   R(7,8)                  1.4183         estimate D2E/DX2                !
 ! R14   R(7,10)                 1.2268         estimate D2E/DX2                !
 ! R15   R(8,11)                 1.0166         estimate D2E/DX2                !
 ! R16   R(12,32)                2.0771         estimate D2E/DX2                !
 ! R17   R(13,14)                1.4701         estimate D2E/DX2                !
 ! R18   R(13,21)                1.5296         estimate D2E/DX2                !
 ! R19   R(13,22)                1.2866         estimate D2E/DX2                !
 ! R20   R(14,15)                1.3561         estimate D2E/DX2                !
 ! R21   R(14,40)                1.7636         estimate D2E/DX2                !
 ! R22   R(15,16)                1.0854         estimate D2E/DX2                !
 ! R23   R(15,17)                1.4549         estimate D2E/DX2                !
 ! R24   R(17,18)                1.0861         estimate D2E/DX2                !
 ! R25   R(17,19)                1.3456         estimate D2E/DX2                !
 ! R26   R(19,20)                1.0856         estimate D2E/DX2                !
 ! R27   R(19,21)                1.5147         estimate D2E/DX2                !
 ! R28   R(21,42)                1.1072         estimate D2E/DX2                !
 ! R29   R(22,36)                1.4424         estimate D2E/DX2                !
 ! R30   R(23,24)                1.4698         estimate D2E/DX2                !
 ! R31   R(23,30)                1.356          estimate D2E/DX2                !
 ! R32   R(23,39)                1.7636         estimate D2E/DX2                !
 ! R33   R(24,25)                1.5306         estimate D2E/DX2                !
 ! R34   R(24,32)                1.2864         estimate D2E/DX2                !
 ! R35   R(25,26)                1.5141         estimate D2E/DX2                !
 ! R36   R(25,41)                1.1068         estimate D2E/DX2                !
 ! R37   R(26,27)                1.0851         estimate D2E/DX2                !
 ! R38   R(26,28)                1.3455         estimate D2E/DX2                !
 ! R39   R(28,29)                1.086          estimate D2E/DX2                !
 ! R40   R(28,30)                1.4551         estimate D2E/DX2                !
 ! R41   R(30,31)                1.0854         estimate D2E/DX2                !
 ! R42   R(32,33)                1.4423         estimate D2E/DX2                !
 ! R43   R(33,34)                1.0945         estimate D2E/DX2                !
 ! R44   R(33,35)                1.0945         estimate D2E/DX2                !
 ! R45   R(33,39)                1.8726         estimate D2E/DX2                !
 ! R46   R(36,37)                1.0945         estimate D2E/DX2                !
 ! R47   R(36,38)                1.0945         estimate D2E/DX2                !
 ! R48   R(36,40)                1.8724         estimate D2E/DX2                !
 ! A1    A(2,1,3)              113.0755         estimate D2E/DX2                !
 ! A2    A(2,1,12)             124.3918         estimate D2E/DX2                !
 ! A3    A(3,1,12)             122.3222         estimate D2E/DX2                !
 ! A4    A(1,2,5)              102.864          estimate D2E/DX2                !
 ! A5    A(1,2,9)              123.4128         estimate D2E/DX2                !
 ! A6    A(5,2,9)              133.718          estimate D2E/DX2                !
 ! A7    A(1,3,4)              107.7974         estimate D2E/DX2                !
 ! A8    A(1,3,25)             120.6551         estimate D2E/DX2                !
 ! A9    A(4,3,25)             131.3823         estimate D2E/DX2                !
 ! A10   A(3,4,5)              108.1642         estimate D2E/DX2                !
 ! A11   A(3,4,7)              143.7659         estimate D2E/DX2                !
 ! A12   A(5,4,7)              107.9794         estimate D2E/DX2                !
 ! A13   A(2,5,4)              108.083          estimate D2E/DX2                !
 ! A14   A(2,5,6)              143.5957         estimate D2E/DX2                !
 ! A15   A(4,5,6)              108.2415         estimate D2E/DX2                !
 ! A16   A(5,6,8)              107.7955         estimate D2E/DX2                !
 ! A17   A(5,6,21)             130.9494         estimate D2E/DX2                !
 ! A18   A(8,6,21)             121.1473         estimate D2E/DX2                !
 ! A19   A(4,7,8)              102.864          estimate D2E/DX2                !
 ! A20   A(4,7,10)             133.82           estimate D2E/DX2                !
 ! A21   A(8,7,10)             123.3083         estimate D2E/DX2                !
 ! A22   A(6,8,7)              113.11           estimate D2E/DX2                !
 ! A23   A(6,8,11)             122.3735         estimate D2E/DX2                !
 ! A24   A(7,8,11)             124.5086         estimate D2E/DX2                !
 ! A25   A(14,13,21)           119.3314         estimate D2E/DX2                !
 ! A26   A(14,13,22)           118.1102         estimate D2E/DX2                !
 ! A27   A(21,13,22)           122.4915         estimate D2E/DX2                !
 ! A28   A(13,14,15)           121.595          estimate D2E/DX2                !
 ! A29   A(13,14,40)           109.2356         estimate D2E/DX2                !
 ! A30   A(15,14,40)           129.1488         estimate D2E/DX2                !
 ! A31   A(14,15,16)           120.8317         estimate D2E/DX2                !
 ! A32   A(14,15,17)           120.1503         estimate D2E/DX2                !
 ! A33   A(16,15,17)           119.0045         estimate D2E/DX2                !
 ! A34   A(15,17,18)           117.8403         estimate D2E/DX2                !
 ! A35   A(15,17,19)           122.7683         estimate D2E/DX2                !
 ! A36   A(18,17,19)           119.3883         estimate D2E/DX2                !
 ! A37   A(17,19,20)           121.1764         estimate D2E/DX2                !
 ! A38   A(17,19,21)           122.0184         estimate D2E/DX2                !
 ! A39   A(20,19,21)           116.7939         estimate D2E/DX2                !
 ! A40   A(6,21,13)            114.6505         estimate D2E/DX2                !
 ! A41   A(6,21,19)            112.193          estimate D2E/DX2                !
 ! A42   A(6,21,42)            104.9944         estimate D2E/DX2                !
 ! A43   A(13,21,19)           113.6031         estimate D2E/DX2                !
 ! A44   A(13,21,42)           104.1111         estimate D2E/DX2                !
 ! A45   A(19,21,42)           106.1521         estimate D2E/DX2                !
 ! A46   A(13,22,36)           113.9767         estimate D2E/DX2                !
 ! A47   A(24,23,30)           121.5712         estimate D2E/DX2                !
 ! A48   A(24,23,39)           109.223          estimate D2E/DX2                !
 ! A49   A(30,23,39)           129.1944         estimate D2E/DX2                !
 ! A50   A(23,24,25)           119.4753         estimate D2E/DX2                !
 ! A51   A(23,24,32)           118.141          estimate D2E/DX2                !
 ! A52   A(25,24,32)           122.316          estimate D2E/DX2                !
 ! A53   A(3,25,24)            114.1716         estimate D2E/DX2                !
 ! A54   A(3,25,26)            112.257          estimate D2E/DX2                !
 ! A55   A(3,25,41)            105.0567         estimate D2E/DX2                !
 ! A56   A(24,25,26)           113.5048         estimate D2E/DX2                !
 ! A57   A(24,25,41)           104.3266         estimate D2E/DX2                !
 ! A58   A(26,25,41)           106.4917         estimate D2E/DX2                !
 ! A59   A(25,26,27)           116.9029         estimate D2E/DX2                !
 ! A60   A(25,26,28)           122.1175         estimate D2E/DX2                !
 ! A61   A(27,26,28)           120.979          estimate D2E/DX2                !
 ! A62   A(26,28,29)           119.3692         estimate D2E/DX2                !
 ! A63   A(26,28,30)           122.7927         estimate D2E/DX2                !
 ! A64   A(29,28,30)           117.8334         estimate D2E/DX2                !
 ! A65   A(23,30,28)           120.1242         estimate D2E/DX2                !
 ! A66   A(23,30,31)           120.8572         estimate D2E/DX2                !
 ! A67   A(28,30,31)           119.0064         estimate D2E/DX2                !
 ! A68   A(24,32,33)           113.9678         estimate D2E/DX2                !
 ! A69   A(32,33,34)           110.2858         estimate D2E/DX2                !
 ! A70   A(32,33,35)           110.2437         estimate D2E/DX2                !
 ! A71   A(32,33,39)           108.9654         estimate D2E/DX2                !
 ! A72   A(34,33,35)           108.62           estimate D2E/DX2                !
 ! A73   A(34,33,39)           109.2694         estimate D2E/DX2                !
 ! A74   A(35,33,39)           109.4391         estimate D2E/DX2                !
 ! A75   A(22,36,37)           110.2372         estimate D2E/DX2                !
 ! A76   A(22,36,38)           110.2756         estimate D2E/DX2                !
 ! A77   A(22,36,40)           108.973          estimate D2E/DX2                !
 ! A78   A(37,36,38)           108.6229         estimate D2E/DX2                !
 ! A79   A(37,36,40)           109.4424         estimate D2E/DX2                !
 ! A80   A(38,36,40)           109.2723         estimate D2E/DX2                !
 ! A81   A(23,39,33)            89.7            estimate D2E/DX2                !
 ! A82   A(14,40,36)            89.6978         estimate D2E/DX2                !
 ! D1    D(3,1,2,5)             -0.6662         estimate D2E/DX2                !
 ! D2    D(3,1,2,9)           -179.9352         estimate D2E/DX2                !
 ! D3    D(12,1,2,5)          -175.4864         estimate D2E/DX2                !
 ! D4    D(12,1,2,9)             5.2445         estimate D2E/DX2                !
 ! D5    D(2,1,3,4)              1.2454         estimate D2E/DX2                !
 ! D6    D(2,1,3,25)           177.0825         estimate D2E/DX2                !
 ! D7    D(12,1,3,4)           176.1877         estimate D2E/DX2                !
 ! D8    D(12,1,3,25)           -7.9752         estimate D2E/DX2                !
 ! D9    D(1,2,5,4)             -0.1361         estimate D2E/DX2                !
 ! D10   D(1,2,5,6)           -176.212          estimate D2E/DX2                !
 ! D11   D(9,2,5,4)            179.0197         estimate D2E/DX2                !
 ! D12   D(9,2,5,6)              2.9438         estimate D2E/DX2                !
 ! D13   D(1,3,4,5)             -1.2667         estimate D2E/DX2                !
 ! D14   D(1,3,4,7)            174.5448         estimate D2E/DX2                !
 ! D15   D(25,3,4,5)          -176.4925         estimate D2E/DX2                !
 ! D16   D(25,3,4,7)            -0.681          estimate D2E/DX2                !
 ! D17   D(1,3,25,24)           34.7353         estimate D2E/DX2                !
 ! D18   D(1,3,25,26)          165.7331         estimate D2E/DX2                !
 ! D19   D(1,3,25,41)          -78.9435         estimate D2E/DX2                !
 ! D20   D(4,3,25,24)         -150.5502         estimate D2E/DX2                !
 ! D21   D(4,3,25,26)          -19.5524         estimate D2E/DX2                !
 ! D22   D(4,3,25,41)           95.771          estimate D2E/DX2                !
 ! D23   D(3,4,5,2)              0.8738         estimate D2E/DX2                !
 ! D24   D(3,4,5,6)            178.4228         estimate D2E/DX2                !
 ! D25   D(7,4,5,2)           -176.5248         estimate D2E/DX2                !
 ! D26   D(7,4,5,6)              1.0243         estimate D2E/DX2                !
 ! D27   D(3,4,7,8)           -176.6075         estimate D2E/DX2                !
 ! D28   D(3,4,7,10)             2.3702         estimate D2E/DX2                !
 ! D29   D(5,4,7,8)             -0.7917         estimate D2E/DX2                !
 ! D30   D(5,4,7,10)           178.186          estimate D2E/DX2                !
 ! D31   D(2,5,6,8)            175.252          estimate D2E/DX2                !
 ! D32   D(2,5,6,21)            -0.9142         estimate D2E/DX2                !
 ! D33   D(4,5,6,8)             -0.8203         estimate D2E/DX2                !
 ! D34   D(4,5,6,21)          -176.9865         estimate D2E/DX2                !
 ! D35   D(5,6,8,7)              0.316          estimate D2E/DX2                !
 ! D36   D(5,6,8,11)           179.3328         estimate D2E/DX2                !
 ! D37   D(21,6,8,7)           176.9332         estimate D2E/DX2                !
 ! D38   D(21,6,8,11)           -4.05           estimate D2E/DX2                !
 ! D39   D(5,6,21,13)         -149.5307         estimate D2E/DX2                !
 ! D40   D(5,6,21,19)          -18.0013         estimate D2E/DX2                !
 ! D41   D(5,6,21,42)           96.8525         estimate D2E/DX2                !
 ! D42   D(8,6,21,13)           34.7353         estimate D2E/DX2                !
 ! D43   D(8,6,21,19)          166.2647         estimate D2E/DX2                !
 ! D44   D(8,6,21,42)          -78.8815         estimate D2E/DX2                !
 ! D45   D(4,7,8,6)              0.3117         estimate D2E/DX2                !
 ! D46   D(4,7,8,11)          -178.6806         estimate D2E/DX2                !
 ! D47   D(10,7,8,6)          -178.8057         estimate D2E/DX2                !
 ! D48   D(10,7,8,11)            2.2019         estimate D2E/DX2                !
 ! D49   D(21,13,14,15)         -5.0332         estimate D2E/DX2                !
 ! D50   D(21,13,14,40)        176.4777         estimate D2E/DX2                !
 ! D51   D(22,13,14,15)        177.8653         estimate D2E/DX2                !
 ! D52   D(22,13,14,40)         -0.6238         estimate D2E/DX2                !
 ! D53   D(14,13,21,6)         139.2434         estimate D2E/DX2                !
 ! D54   D(14,13,21,19)          8.3947         estimate D2E/DX2                !
 ! D55   D(14,13,21,42)       -106.6216         estimate D2E/DX2                !
 ! D56   D(22,13,21,6)         -43.7878         estimate D2E/DX2                !
 ! D57   D(22,13,21,19)       -174.6365         estimate D2E/DX2                !
 ! D58   D(22,13,21,42)         70.3472         estimate D2E/DX2                !
 ! D59   D(14,13,22,36)          0.0511         estimate D2E/DX2                !
 ! D60   D(21,13,22,36)       -176.9529         estimate D2E/DX2                !
 ! D61   D(13,14,15,16)       -178.9606         estimate D2E/DX2                !
 ! D62   D(13,14,15,17)         -0.3106         estimate D2E/DX2                !
 ! D63   D(40,14,15,16)         -0.8001         estimate D2E/DX2                !
 ! D64   D(40,14,15,17)        177.8498         estimate D2E/DX2                !
 ! D65   D(13,14,40,36)          0.7212         estimate D2E/DX2                !
 ! D66   D(15,14,40,36)       -177.6193         estimate D2E/DX2                !
 ! D67   D(14,15,17,18)       -177.6309         estimate D2E/DX2                !
 ! D68   D(14,15,17,19)          1.7142         estimate D2E/DX2                !
 ! D69   D(16,15,17,18)          1.0436         estimate D2E/DX2                !
 ! D70   D(16,15,17,19)       -179.6112         estimate D2E/DX2                !
 ! D71   D(15,17,19,20)       -178.7499         estimate D2E/DX2                !
 ! D72   D(15,17,19,21)          2.5084         estimate D2E/DX2                !
 ! D73   D(18,17,19,20)          0.5856         estimate D2E/DX2                !
 ! D74   D(18,17,19,21)       -178.1561         estimate D2E/DX2                !
 ! D75   D(17,19,21,6)        -139.3667         estimate D2E/DX2                !
 ! D76   D(17,19,21,13)         -7.3125         estimate D2E/DX2                !
 ! D77   D(17,19,21,42)        106.4875         estimate D2E/DX2                !
 ! D78   D(20,19,21,6)          41.8394         estimate D2E/DX2                !
 ! D79   D(20,19,21,13)        173.8936         estimate D2E/DX2                !
 ! D80   D(20,19,21,42)        -72.3064         estimate D2E/DX2                !
 ! D81   D(13,22,36,37)        120.6366         estimate D2E/DX2                !
 ! D82   D(13,22,36,38)       -119.4277         estimate D2E/DX2                !
 ! D83   D(13,22,36,40)          0.5117         estimate D2E/DX2                !
 ! D84   D(30,23,24,25)         -4.1518         estimate D2E/DX2                !
 ! D85   D(30,23,24,32)        178.7716         estimate D2E/DX2                !
 ! D86   D(39,23,24,25)        176.9702         estimate D2E/DX2                !
 ! D87   D(39,23,24,32)         -0.1065         estimate D2E/DX2                !
 ! D88   D(24,23,30,28)         -0.5823         estimate D2E/DX2                !
 ! D89   D(24,23,30,31)       -179.2952         estimate D2E/DX2                !
 ! D90   D(39,23,30,28)        178.0507         estimate D2E/DX2                !
 ! D91   D(39,23,30,31)         -0.6622         estimate D2E/DX2                !
 ! D92   D(24,23,39,33)          0.3341         estimate D2E/DX2                !
 ! D93   D(30,23,39,33)       -178.4325         estimate D2E/DX2                !
 ! D94   D(23,24,25,3)         137.7048         estimate D2E/DX2                !
 ! D95   D(23,24,25,26)          7.3195         estimate D2E/DX2                !
 ! D96   D(23,24,25,41)       -108.1843         estimate D2E/DX2                !
 ! D97   D(32,24,25,3)         -45.3456         estimate D2E/DX2                !
 ! D98   D(32,24,25,26)       -175.7309         estimate D2E/DX2                !
 ! D99   D(32,24,25,41)         68.7653         estimate D2E/DX2                !
 ! D100  D(23,24,32,33)         -0.2912         estimate D2E/DX2                !
 ! D101  D(25,24,32,33)       -177.2797         estimate D2E/DX2                !
 ! D102  D(3,25,26,27)          42.4021         estimate D2E/DX2                !
 ! D103  D(3,25,26,28)        -137.8806         estimate D2E/DX2                !
 ! D104  D(24,25,26,27)        173.7368         estimate D2E/DX2                !
 ! D105  D(24,25,26,28)         -6.5459         estimate D2E/DX2                !
 ! D106  D(41,25,26,27)        -72.0474         estimate D2E/DX2                !
 ! D107  D(41,25,26,28)        107.6699         estimate D2E/DX2                !
 ! D108  D(25,26,28,29)       -178.4929         estimate D2E/DX2                !
 ! D109  D(25,26,28,30)          2.3129         estimate D2E/DX2                !
 ! D110  D(27,26,28,29)          1.213          estimate D2E/DX2                !
 ! D111  D(27,26,28,30)       -177.9811         estimate D2E/DX2                !
 ! D112  D(26,28,30,23)          1.6275         estimate D2E/DX2                !
 ! D113  D(26,28,30,31)       -179.6359         estimate D2E/DX2                !
 ! D114  D(29,28,30,23)       -177.5784         estimate D2E/DX2                !
 ! D115  D(29,28,30,31)          1.1582         estimate D2E/DX2                !
 ! D116  D(24,32,33,34)       -119.4108         estimate D2E/DX2                !
 ! D117  D(24,32,33,35)        120.6466         estimate D2E/DX2                !
 ! D118  D(24,32,33,39)          0.5265         estimate D2E/DX2                !
 ! D119  D(32,33,39,23)         -0.4833         estimate D2E/DX2                !
 ! D120  D(34,33,39,23)        120.0807         estimate D2E/DX2                !
 ! D121  D(35,33,39,23)       -121.0988         estimate D2E/DX2                !
 ! D122  D(22,36,40,14)         -0.7152         estimate D2E/DX2                !
 ! D123  D(37,36,40,14)       -121.3296         estimate D2E/DX2                !
 ! D124  D(38,36,40,14)        119.8428         estimate D2E/DX2                !
 --------------------------------------------------------------------------------
 Trust Radius=3.00D-01 FncErr=1.00D-07 GrdErr=1.00D-06
 Number of steps in this run=    252 maximum allowed number of steps=    252.
 GradGradGradGradGradGradGradGradGradGradGradGradGradGradGradGradGradGrad

                          Input orientation:                          
 ---------------------------------------------------------------------
 Center     Atomic      Atomic             Coordinates (Angstroms)
 Number     Number       Type             X           Y           Z
 ---------------------------------------------------------------------
      1          7           0       -1.625477   -1.375829   -0.647288
      2          6           0       -0.275062   -1.807442   -0.633636
      3          6           0       -1.754297   -0.002171   -0.636309
      4          6           0       -0.487449    0.539705   -0.643293
      5          6           0        0.469246   -0.548261   -0.628895
      6          6           0        1.736517   -0.008870   -0.671869
      7          6           0        0.258844    1.796698   -0.722939
      8          7           0        1.608939    1.362379   -0.731006
      9          8           0        0.056933   -2.988968   -0.641350
     10          8           0       -0.069640    2.976736   -0.790750
     11          1           0        2.413470    1.983133   -0.760670
     12          1           0       -2.427596   -1.997454   -0.587749
     13          6           0        4.225934    0.111063   -0.066734
     14          6           0        5.230764   -0.609786    0.728094
     15          6           0        5.128257   -1.941255    0.964205
     16          1           0        5.868515   -2.457984    1.566859
     17          6           0        4.001403   -2.692938    0.433259
     18          1           0        3.935789   -3.749055    0.677877
     19          6           0        3.044952   -2.130861   -0.328191
     20          1           0        2.204309   -2.712021   -0.694334
     21          6           0        3.098622   -0.673989   -0.739349
     22          7           0        4.366889    1.381398   -0.214016
     23          6           0       -5.215903    0.592276    0.812939
     24          6           0       -4.228340   -0.133103    0.001259
     25          6           0       -3.122932    0.646869   -0.714614
     26          6           0       -3.083489    2.114791   -0.345496
     27          1           0       -2.257542    2.698078   -0.739309
     28          6           0       -4.025490    2.683206    0.429048
     29          1           0       -3.966864    3.745773    0.645827
     30          6           0       -5.125401    1.930435    1.012752
     31          1           0       -5.854883    2.452689    1.623697
     32          7           0       -4.364293   -1.406065   -0.125219
     33          6           0       -5.501163   -1.946684    0.578701
     34          1           0       -5.173195   -2.677187    1.324884
     35          1           0       -6.179361   -2.443478   -0.122183
     36          6           0        5.530189    1.922386    0.445194
     37          1           0        6.188471    2.404895   -0.284047
     38          1           0        5.231983    2.664976    1.191945
     39         16           0       -6.405872   -0.549881    1.437309
     40         16           0        6.452521    0.530230    1.292079
     41          1           0       -3.402919    0.599300   -1.784354
     42          1           0        3.368063   -0.666745   -1.813249
 ---------------------------------------------------------------------
                    Distance matrix (angstroms):
                    1          2          3          4          5
     1  N    0.000000
     2  C    1.417779   0.000000
     3  C    1.379728   2.333913   0.000000
     4  C    2.228092   2.356757   1.377891   0.000000
     5  C    2.252348   1.462721   2.289632   1.448842   0.000000
     6  C    3.629350   2.698661   3.491002   2.290802   1.377957
     7  C    3.690706   3.644565   2.701143   1.464011   2.356257
     8  N    4.238659   3.688726   3.630747   2.253736   2.227077
     9  O    2.330827   1.227307   3.493070   3.570418   2.475319
    10  O    4.624503   4.791163   3.425757   2.476980   3.569622
    11  H    5.254386   4.648957   4.618136   3.242313   3.194578
    12  H    1.016542   2.161392   2.106381   3.194437   3.239375
    13  C    6.065221   4.925546   6.008362   4.767823   3.855313
    14  C    7.034666   5.796792   7.142959   5.991660   4.951490
    15  C    6.966314   5.636209   7.327431   6.346288   5.117107
    16  H    7.888816   6.558118   8.306156   7.366762   6.133553
    17  C    5.879127   4.495611   6.443003   5.635489   4.266607
    18  H    6.189987   4.818837   6.938538   6.301110   4.895881
    19  C    4.741814   3.349685   5.259188   4.439490   3.037977
    20  H    4.056462   2.639929   4.797627   4.221598   2.774272
    21  C    4.776836   3.560566   4.900284   3.787108   2.634696
    22  N    6.610482   5.647344   6.289795   4.945434   4.368905
    23  C    4.347052   5.680065   3.799526   4.947894   5.975001
    24  C    2.956328   4.339921   2.558226   3.855176   4.757811
    25  C    2.517580   3.760394   1.516755   2.638625   3.786744
    26  C    3.794905   4.832618   2.516515   3.051065   4.449054
    27  H    4.123675   4.923526   2.748674   2.793031   4.241024
    28  C    4.836768   5.946506   3.674854   4.273435   5.635981
    29  H    5.777979   6.790039   4.537225   4.903777   6.304183
    30  C    5.092797   6.340986   4.221221   5.117345   6.335536
    31  H    6.140261   7.374190   5.286659   6.132544   7.353535
    32  N    2.788295   4.140218   3.007359   4.368563   4.934838
    33  C    4.104860   5.366683   4.392765   5.728240   6.249773
    34  H    4.262547   5.346398   4.763492   6.014843   6.339300
    35  H    4.706748   5.960443   5.079911   6.447387   6.931997
    36  C    7.954577   6.984012   7.611656   6.269655   5.733316
    37  H    8.688130   7.722905   8.306963   6.940886   6.445897
    38  H    8.169187   7.325490   7.698330   6.371559   6.026940
    39  S    5.280143   6.592201   5.122209   6.367404   7.178889
    40  S    8.523394   7.377903   8.447130   7.204786   6.375960
    41  H    2.890217   4.110967   2.097076   3.131380   4.200672
    42  H    5.176650   3.995627   5.297681   4.205864   3.133668
                    6          7          8          9         10
     6  C    0.000000
     7  C    2.333710   0.000000
     8  N    1.378440   1.418258   0.000000
     9  O    3.420952   4.790618   4.620711   0.000000
    10  O    3.491444   1.226780   2.329666   5.968916   0.000000
    11  H    2.105760   2.163006   1.016605   5.503570   2.674694
    12  H    4.615342   4.650895   5.253818   2.675604   5.508514
    13  C    2.564717   4.360021   2.975855   5.226944   5.214234
    14  C    3.811923   5.711099   4.374474   5.856996   6.577560
    15  C    4.232582   6.366313   5.115988   5.421608   7.367811
    16  H    5.299383   7.403641   6.165982   6.239600   8.387859
    17  C    3.681744   5.958219   4.850257   4.098934   7.086381
    18  H    4.543963   6.799823   5.790159   4.166967   7.964709
    19  C    2.516538   4.831558   3.798305   3.124527   6.000183
    20  H    2.743422   4.910622   4.117833   2.165809   6.127161
    21  C    1.517322   3.764161   2.523097   3.823689   4.834079
    22  N    3.010205   4.160230   2.806052   6.152920   4.749791
    23  C    7.134576   5.812263   7.039552   6.537818   5.894191
    24  C    6.004003   4.937956   6.070132   5.189651   5.252919
    25  C    4.903679   3.571916   4.785689   4.830757   3.841441
    26  C    5.277206   3.378584   4.767978   5.999844   3.166147
    27  H    4.825414   2.673004   4.090701   6.140756   2.206176
    28  C    6.454457   4.524211   5.902296   7.070041   4.150039
    29  H    6.954295   4.850672   6.218184   7.950126   4.224160
    30  C    7.326989   5.658675   6.979593   7.334382   5.468829
    31  H    8.304110   6.581389   7.902027   8.348152   6.290725
    32  N    6.282584   5.655825   6.611411   4.724322   6.172190
    33  C    7.596254   6.991771   7.951024   5.785094   7.457675
    34  H    7.671445   7.329139   8.157335   5.596207   7.905001
    35  H    8.300036   7.732431   8.689812   6.281597   8.194779
    36  C    4.401083   5.400687   4.131980   7.433606   5.830720
    37  H    5.079032   5.976874   4.717916   8.174178   6.304578
    38  H    4.779281   5.399333   4.303597   7.880938   5.668816
    39  S    8.428513   7.388609   8.520301   7.213724   7.586113
    40  S    5.136966   6.635200   5.314662   7.551585   7.270636
    41  H    5.293515   3.996107   5.177891   5.113971   4.213099
    42  H    2.097020   4.113949   2.895361   4.210659   5.112559
                   11         12         13         14         15
    11  H    0.000000
    12  H    6.269840   0.000000
    13  C    2.696520   6.999055   0.000000
    14  C    4.108137   7.893512   1.470053   0.000000
    15  C    5.074060   7.713795   2.467596   1.356122   0.000000
    16  H    6.089190   8.583698   3.459291   2.127461   1.085440
    17  C    5.080614   6.546616   2.857066   2.436756   1.454899
    18  H    6.102856   6.720311   3.941972   3.396248   2.184516
    19  C    4.184586   5.480324   2.547411   2.864818   2.458943
    20  H    4.700279   4.687911   3.528548   3.949952   3.448812
    21  C    2.744118   5.684508   1.529559   2.589119   2.937257
    22  N    2.115836   7.597456   1.286589   2.366149   3.606648
    23  C    7.913157   4.055032   9.494929  10.515940  10.650977
    24  C    7.012319   2.658084   8.458072   9.498955   9.578235
    25  C    5.695566   2.737157   7.396802   8.569995   8.809026
    26  C    5.514187   4.171263   7.584214   8.814914   9.252005
    27  H    4.725458   4.701054   7.012879   8.316847   8.886810
    28  C    6.585267   5.049328   8.657236   9.829113  10.269524
    29  H    6.767111   6.072537   8.991152  10.177132  10.731490
    30  C    7.744829   5.026735   9.587642  10.666954  10.960376
    31  H    8.618083   6.036602  10.486355  11.535702  11.847828
    32  N    7.604508   2.077130   8.723366   9.665781   9.569837
    33  C    8.937494   3.287856   9.963300  10.815909  10.636410
    34  H    9.144704   3.414457   9.902251  10.624155  10.334003
    35  H    9.687069   3.806761  10.714426  11.587767  11.370783
    36  C    3.342415   8.930759   2.289988   2.565459   3.919010
    37  H    3.828275   9.680368   3.026623   3.321135   4.644481
    38  H    3.495944   9.141920   3.019748   3.307449   4.613023
    39  S    9.435468   4.692867  10.757988  11.658382  11.627377
    40  S    4.758008   9.422283   2.641924   1.763634   2.823015
    41  H    6.065749   3.020968   7.835050   9.072748   9.316113
    42  H    3.006830   6.071433   2.095529   3.151400   3.526600
                   16         17         18         19         20
    16  H    0.000000
    17  C    2.196897   0.000000
    18  H    2.488490   1.086061   0.000000
    19  C    3.416245   1.345561   2.103406   0.000000
    20  H    4.313227   2.121644   2.440578   1.085582   0.000000
    21  C    4.021633   2.503234   3.487895   1.514730   2.226072
    22  N    4.490796   4.141589   5.225215   3.754533   4.654411
    23  C   11.521146   9.792626  10.130097   8.772650   8.261344
    24  C   10.478675   8.629487   8.954659   7.549858   6.965173
    25  C    9.782195   7.951608   8.431412   6.775537   6.297782
    26  C   10.232582   8.597465   9.203382   7.455444   7.168027
    27  H    9.896271   8.343402   9.051590   7.183601   7.012796
    28  C   11.207934   9.660950  10.238059   8.587189   8.317503
    29  H   11.664886  10.246729  10.891529   9.200495   9.032304
    30  C   11.850377  10.247436  10.699248   9.222089   8.842578
    31  H   12.710468  11.182173  11.628132  10.199307   9.848760
    32  N   10.424971   8.482500   8.661751   7.447378   6.721306
    33  C   11.423986   9.532933   9.608040   8.596073   7.847335
    34  H   11.046536   9.217836   9.194624   8.400540   7.648923
    35  H   12.165705  10.198956  10.230390   9.231908   8.407461
    36  C    4.534339   4.861949   5.895888   4.816985   5.817021
    37  H    5.213043   5.593362   6.623518   5.518763   6.498055
    38  H    5.175949   5.549519   6.563854   5.485797   6.452670
    39  S   12.422488  10.672965  10.851792   9.743437   9.129840
    40  S    3.057121   4.139367   5.002346   4.617165   5.701345
    41  H   10.321681   8.401227   8.878480   7.151869   6.602576
    42  H    4.570112   3.090854   4.003581   2.110316   2.605657
                   21         22         23         24         25
    21  C    0.000000
    22  N    2.471658   0.000000
    23  C    8.552447   9.669915   0.000000
    24  C    7.384133   8.730293   1.469789   0.000000
    25  C    6.360268   7.542384   2.591703   1.530607   0.000000
    26  C    6.793446   7.487542   2.864823   2.546360   1.514133
    27  H    6.329244   6.774412   3.949149   3.528183   2.226426
    28  C    7.961714   8.517057   2.436481   2.855827   2.503846
    29  H    8.448319   8.705231   3.395963   3.940750   3.488012
    30  C    8.802695   9.586969   1.356017   2.466987   2.939595
    31  H    9.773707  10.440760   2.127618   3.458940   4.023959
    32  N    7.523842   9.165772   2.366167   1.286434   2.470405
    33  C    8.792799  10.444280   2.565651   2.289672   3.749022
    34  H    8.757672  10.481104   3.309578   3.019454   4.405960
    35  H    9.465356  11.218801   3.319414   3.026476   4.386682
    36  C    3.749243   1.442392  10.834340   9.982535   8.823186
    37  H    4.385658   2.090601  11.599514  10.725334   9.485688
    38  H    4.407925   2.091096  10.658238   9.937035   8.804108
    39  S    9.751341  11.068383   1.763629   2.641513   4.103740
    40  S    4.101888   2.709736  11.678422  10.779008   9.784157
    41  H    6.706962   7.965398   3.167473   2.099082   1.106796
    42  H    1.107209   2.783898   9.064573   7.828317   6.713092
                   26         27         28         29         30
    26  C    0.000000
    27  H    1.085127   0.000000
    28  C    1.345504   2.119180   0.000000
    29  H    2.103135   2.436811   1.086038   0.000000
    30  C    2.459315   3.447262   1.455053   2.184558   0.000000
    31  H    3.416508   4.311018   2.197044   2.488556   1.085425
    32  N    3.753053   4.653977   4.140548   5.224356   3.606452
    33  C    4.816106   5.816533   4.861676   5.895986   3.919394
    34  H    5.488178   6.454100   5.554598   6.570447   4.618430
    35  H    5.514718   6.495931   5.588014   6.617538   4.640046
    36  C    8.652032   7.915396   9.585933   9.672591  10.670698
    37  H    9.276701   8.463354  10.242606  10.285595  11.397829
    38  H    8.474284   7.734585   9.288872   9.278208  10.384944
    39  S    4.617045   5.700487   4.139524   5.002784   2.823442
    40  S    9.804487   9.202788  10.731675  10.923413  11.665628
    41  H    2.114015   2.609383   3.103128   4.015483   3.544385
    42  H    7.177309   6.642501   8.421087   8.906095   9.320438
                   31         32         33         34         35
    31  H    0.000000
    32  N    4.491163   0.000000
    33  C    4.535595   1.442306   0.000000
    34  H    5.183591   2.091141   1.094526   0.000000
    35  H    5.208247   2.090623   1.094529   1.777919   0.000000
    36  C   11.458183  10.454891  11.690948  11.682995  12.509846
    37  H   12.193611  11.220940  12.503125  12.550048  13.285188
    38  H   11.097300  10.506988  11.698030  11.697184  12.571476
    39  S    3.058392   2.709721   1.872636   2.461212   2.463540
    40  S   12.461060  11.079776  12.228434  12.060095  13.054023
    41  H    4.589334   2.774609   4.058163   4.851454   4.441839
    42  H   10.325028   7.948923   9.274850   9.318951   9.857474
                   36         37         38         39         40
    36  C    0.000000
    37  H    1.094506   0.000000
    38  H    1.094533   1.777938   0.000000
    39  S   12.229716  13.050336  12.076223   0.000000
    40  S    1.872434   2.463385   2.461073  12.904496   0.000000
    41  H    9.301713   9.874506   9.364128   4.551643  10.324675
    42  H    4.059428   4.441637   4.858575  10.300951   4.537587
                   41         42
    41  H    0.000000
    42  H    6.888390   0.000000
 Stoichiometry    C20H14N4O2S2
 Framework group  C1[X(C20H14N4O2S2)]
 Deg. of freedom   120
 Full point group                 C1      NOp   1
 Largest Abelian subgroup         C1      NOp   1
 Largest concise Abelian subgroup C1      NOp   1
                         Standard orientation:                         
 ---------------------------------------------------------------------
 Center     Atomic      Atomic             Coordinates (Angstroms)
 Number     Number       Type             X           Y           Z
 ---------------------------------------------------------------------
      1          7           0       -1.602766   -1.369181   -0.768849
      2          6           0       -0.247573   -1.785470   -0.752940
      3          6           0       -1.747700    0.002308   -0.728090
      4          6           0       -0.487249    0.558704   -0.711635
      5          6           0        0.481919   -0.518261   -0.713250
      6          6           0        1.743131    0.036470   -0.732828
      7          6           0        0.244980    1.825657   -0.756339
      8          7           0        1.600071    1.407151   -0.762207
      9          8           0        0.098243   -2.962632   -0.784308
     10          8           0       -0.096658    3.003080   -0.800477
     11          1           0        2.397528    2.037607   -0.770750
     12          1           0       -2.398059   -2.001156   -0.730437
     13          6           0        4.225678    0.171242   -0.103090
     14          6           0        5.231972   -0.555820    0.684189
     15          6           0        5.142984   -1.893376    0.889346
     16          1           0        5.884007   -2.415074    1.486755
     17          6           0        4.029592   -2.645740    0.331637
     18          1           0        3.974205   -3.707803    0.551824
     19          6           0        3.073237   -2.077599   -0.425419
     20          1           0        2.242617   -2.659937   -0.811995
     21          6           0        3.113437   -0.611281   -0.803181
     22          7           0        4.353059    1.446117   -0.220478
     23          6           0       -5.228356    0.524072    0.703414
     24          6           0       -4.225443   -0.171387   -0.115600
     25          6           0       -3.123092    0.637207   -0.803899
     26          6           0       -3.103963    2.096762   -0.401491
     27          1           0       -2.281520    2.698245   -0.774730
     28          6           0       -4.059167    2.636669    0.377269
     29          1           0       -4.014815    3.694664    0.618427
     30          6           0       -5.155201    1.858319    0.934098
     31          1           0       -5.895961    2.358219    1.550152
     32          7           0       -4.345436   -1.442640   -0.271906
     33          6           0       -5.481937   -2.012048    0.409553
     34          1           0       -5.151901   -2.755428    1.141980
     35          1           0       -6.148231   -2.500614   -0.308326
     36          6           0        5.504248    1.985371    0.461037
     37          1           0        6.163107    2.491770   -0.251289
     38          1           0        5.190978    2.707412    1.221642
     39         16           0       -6.410244   -0.645493    1.291332
     40         16           0        6.435441    0.585093    1.284512
     41          1           0       -3.393286    0.610632   -1.876879
     42          1           0        3.392010   -0.576661   -1.874214
 ---------------------------------------------------------------------
 Rotational constants (GHZ):      0.3811964      0.0706068      0.0634586
 Standard basis: 6-31+G(d,p) (6D, 7F)
 There are   610 symmetry adapted basis functions of A   symmetry.
 Integral buffers will be    262144 words long.
 Raffenetti 2 integral format.
 Two-electron integral symmetry is turned on.
   610 basis functions,  1042 primitive gaussians,   610 cartesian basis functions
   105 alpha electrons      105 beta electrons
       nuclear repulsion energy      2703.8521526406 Hartrees.
 NAtoms=   42 NActive=   42 NUniq=   42 SFac= 1.00D+00 NAtFMM=   50 NAOKFM=F Big=F
 One-electron integrals computed using PRISM.
 NBasis=   610 RedAO= T  NBF=   610
 NBsUse=   606 1.00D-06 NBFU=   606
 Harris functional with IExCor=  402 diagonalized for initial guess.
 ExpMin= 4.05D-02 ExpMax= 2.19D+04 ExpMxC= 3.30D+03 IAcc=2 IRadAn=         0 AccDes= 0.00D+00
 HarFok:  IExCor=  402 AccDes= 0.00D+00 IRadAn=         0 IDoV= 1
 ScaDFX=  1.000000  1.000000  1.000000  1.000000
 FoFCou: FMM=F IPFlag=           0 FMFlag=      100000 FMFlg1=           0
         NFxFlg=           0 DoJE=T BraDBF=F KetDBF=T FulRan=T
         Omega=  0.000000  0.000000  1.000000  0.000000  0.000000 ICntrl=     500 IOpCl=  0
         NMat0=    1 NMatS0=    1 NMatT0=    0 NMatD0=    1 NMtDS0=    0 NMtDT0=    0
         I1Cent=           4 NGrid=           0.
 Petite list used in FoFCou.
 Initial guess orbital symmetries:
       Occupied  (A) (A) (A) (A) (A) (A) (A) (A) (A) (A) (A) (A)
                 (A) (A) (A) (A) (A) (A) (A) (A) (A) (A) (A) (A)
                 (A) (A) (A) (A) (A) (A) (A) (A) (A) (A) (A) (A)
                 (A) (A) (A) (A) (A) (A) (A) (A) (A) (A) (A) (A)
                 (A) (A) (A) (A) (A) (A) (A) (A) (A) (A) (A) (A)
                 (A) (A) (A) (A) (A) (A) (A) (A) (A) (A) (A) (A)
                 (A) (A) (A) (A) (A) (A) (A) (A) (A) (A) (A) (A)
                 (A) (A) (A) (A) (A) (A) (A) (A) (A) (A) (A) (A)
                 (A) (A) (A) (A) (A) (A) (A) (A) (A)
       Virtual   (A) (A) (A) (A) (A) (A) (A) (A) (A) (A) (A) (A)
                 (A) (A) (A) (A) (A) (A) (A) (A) (A) (A) (A) (A)
                 (A) (A) (A) (A) (A) (A) (A) (A) (A) (A) (A) (A)
                 (A) (A) (A) (A) (A) (A) (A) (A) (A) (A) (A) (A)
                 (A) (A) (A) (A) (A) (A) (A) (A) (A) (A) (A) (A)
                 (A) (A) (A) (A) (A) (A) (A) (A) (A) (A) (A) (A)
                 (A) (A) (A) (A) (A) (A) (A) (A) (A) (A) (A) (A)
                 (A) (A) (A) (A) (A) (A) (A) (A) (A) (A) (A) (A)
                 (A) (A) (A) (A) (A) (A) (A) (A) (A) (A) (A) (A)
                 (A) (A) (A) (A) (A) (A) (A) (A) (A) (A) (A) (A)
                 (A) (A) (A) (A) (A) (A) (A) (A) (A) (A) (A) (A)
                 (A) (A) (A) (A) (A) (A) (A) (A) (A) (A) (A) (A)
                 (A) (A) (A) (A) (A) (A) (A) (A) (A) (A) (A) (A)
                 (A) (A) (A) (A) (A) (A) (A) (A) (A) (A) (A) (A)
                 (A) (A) (A) (A) (A) (A) (A) (A) (A) (A) (A) (A)
                 (A) (A) (A) (A) (A) (A) (A) (A) (A) (A) (A) (A)
                 (A) (A) (A) (A) (A) (A) (A) (A) (A) (A) (A) (A)
                 (A) (A) (A) (A) (A) (A) (A) (A) (A) (A) (A) (A)
                 (A) (A) (A) (A) (A) (A) (A) (A) (A) (A) (A) (A)
                 (A) (A) (A) (A) (A) (A) (A) (A) (A) (A) (A) (A)
                 (A) (A) (A) (A) (A) (A) (A) (A) (A) (A) (A) (A)
                 (A) (A) (A) (A) (A) (A) (A) (A) (A) (A) (A) (A)
                 (A) (A) (A) (A) (A) (A) (A) (A) (A) (A) (A) (A)
                 (A) (A) (A) (A) (A) (A) (A) (A) (A) (A) (A) (A)
                 (A) (A) (A) (A) (A) (A) (A) (A) (A) (A) (A) (A)
                 (A) (A) (A) (A) (A) (A) (A) (A) (A) (A) (A) (A)
                 (A) (A) (A) (A) (A) (A) (A) (A) (A) (A) (A) (A)
                 (A) (A) (A) (A) (A) (A) (A) (A) (A) (A) (A) (A)
                 (A) (A) (A) (A) (A) (A) (A) (A) (A) (A) (A) (A)
                 (A) (A) (A) (A) (A) (A) (A) (A) (A) (A) (A) (A)
                 (A) (A) (A) (A) (A) (A) (A) (A) (A) (A) (A) (A)
                 (A) (A) (A) (A) (A) (A) (A) (A) (A) (A) (A) (A)
                 (A) (A) (A) (A) (A) (A) (A) (A) (A) (A) (A) (A)
                 (A) (A) (A) (A) (A) (A) (A) (A) (A) (A) (A) (A)
                 (A) (A) (A) (A) (A) (A) (A) (A) (A) (A) (A) (A)
                 (A) (A) (A) (A) (A) (A) (A) (A) (A) (A) (A) (A)
                 (A) (A) (A) (A) (A) (A) (A) (A) (A) (A) (A) (A)
                 (A) (A) (A) (A) (A) (A) (A) (A) (A) (A) (A) (A)
                 (A) (A) (A) (A) (A) (A) (A) (A) (A) (A) (A) (A)
                 (A) (A) (A) (A) (A) (A) (A) (A) (A) (A) (A) (A)
                 (A) (A) (A) (A) (A) (A) (A) (A) (A) (A) (A) (A)
                 (A) (A) (A) (A) (A) (A) (A) (A) (A)
 The electronic state of the initial guess is 1-A.
 Requested convergence on RMS density matrix=1.00D-08 within 128 cycles.
 Requested convergence on MAX density matrix=1.00D-06.
 Requested convergence on             energy=1.00D-06.
 No special actions if energy rises.
 SCF Done:  E(RB3LYP) =  -1936.39490221     A.U. after   17 cycles
             Convg  =    0.3370D-08             -V/T =  2.0069

 **********************************************************************

            Population analysis using the SCF density.

 **********************************************************************

 Orbital symmetries:
       Occupied  (A) (A) (A) (A) (A) (A) (A) (A) (A) (A) (A) (A)
                 (A) (A) (A) (A) (A) (A) (A) (A) (A) (A) (A) (A)
                 (A) (A) (A) (A) (A) (A) (A) (A) (A) (A) (A) (A)
                 (A) (A) (A) (A) (A) (A) (A) (A) (A) (A) (A) (A)
                 (A) (A) (A) (A) (A) (A) (A) (A) (A) (A) (A) (A)
                 (A) (A) (A) (A) (A) (A) (A) (A) (A) (A) (A) (A)
                 (A) (A) (A) (A) (A) (A) (A) (A) (A) (A) (A) (A)
                 (A) (A) (A) (A) (A) (A) (A) (A) (A) (A) (A) (A)
                 (A) (A) (A) (A) (A) (A) (A) (A) (A)
       Virtual   (A) (A) (A) (A) (A) (A) (A) (A) (A) (A) (A) (A)
                 (A) (A) (A) (A) (A) (A) (A) (A) (A) (A) (A) (A)
                 (A) (A) (A) (A) (A) (A) (A) (A) (A) (A) (A) (A)
                 (A) (A) (A) (A) (A) (A) (A) (A) (A) (A) (A) (A)
                 (A) (A) (A) (A) (A) (A) (A) (A) (A) (A) (A) (A)
                 (A) (A) (A) (A) (A) (A) (A) (A) (A) (A) (A) (A)
                 (A) (A) (A) (A) (A) (A) (A) (A) (A) (A) (A) (A)
                 (A) (A) (A) (A) (A) (A) (A) (A) (A) (A) (A) (A)
                 (A) (A) (A) (A) (A) (A) (A) (A) (A) (A) (A) (A)
                 (A) (A) (A) (A) (A) (A) (A) (A) (A) (A) (A) (A)
                 (A) (A) (A) (A) (A) (A) (A) (A) (A) (A) (A) (A)
                 (A) (A) (A) (A) (A) (A) (A) (A) (A) (A) (A) (A)
                 (A) (A) (A) (A) (A) (A) (A) (A) (A) (A) (A) (A)
                 (A) (A) (A) (A) (A) (A) (A) (A) (A) (A) (A) (A)
                 (A) (A) (A) (A) (A) (A) (A) (A) (A) (A) (A) (A)
                 (A) (A) (A) (A) (A) (A) (A) (A) (A) (A) (A) (A)
                 (A) (A) (A) (A) (A) (A) (A) (A) (A) (A) (A) (A)
                 (A) (A) (A) (A) (A) (A) (A) (A) (A) (A) (A) (A)
                 (A) (A) (A) (A) (A) (A) (A) (A) (A) (A) (A) (A)
                 (A) (A) (A) (A) (A) (A) (A) (A) (A) (A) (A) (A)
                 (A) (A) (A) (A) (A) (A) (A) (A) (A) (A) (A) (A)
                 (A) (A) (A) (A) (A) (A) (A) (A) (A) (A) (A) (A)
                 (A) (A) (A) (A) (A) (A) (A) (A) (A) (A) (A) (A)
                 (A) (A) (A) (A) (A) (A) (A) (A) (A) (A) (A) (A)
                 (A) (A) (A) (A) (A) (A) (A) (A) (A) (A) (A) (A)
                 (A) (A) (A) (A) (A) (A) (A) (A) (A) (A) (A) (A)
                 (A) (A) (A) (A) (A) (A) (A) (A) (A) (A) (A) (A)
                 (A) (A) (A) (A) (A) (A) (A) (A) (A) (A) (A) (A)
                 (A) (A) (A) (A) (A) (A) (A) (A) (A) (A) (A) (A)
                 (A) (A) (A) (A) (A) (A) (A) (A) (A) (A) (A) (A)
                 (A) (A) (A) (A) (A) (A) (A) (A) (A) (A) (A) (A)
                 (A) (A) (A) (A) (A) (A) (A) (A) (A) (A) (A) (A)
                 (A) (A) (A) (A) (A) (A) (A) (A) (A) (A) (A) (A)
                 (A) (A) (A) (A) (A) (A) (A) (A) (A) (A) (A) (A)
                 (A) (A) (A) (A) (A) (A) (A) (A) (A) (A) (A) (A)
                 (A) (A) (A) (A) (A) (A) (A) (A) (A) (A) (A) (A)
                 (A) (A) (A) (A) (A) (A) (A) (A) (A) (A) (A) (A)
                 (A) (A) (A) (A) (A) (A) (A) (A) (A) (A) (A) (A)
                 (A) (A) (A) (A) (A) (A) (A) (A) (A) (A) (A) (A)
                 (A) (A) (A) (A) (A) (A) (A) (A) (A) (A) (A) (A)
                 (A) (A) (A) (A) (A) (A) (A) (A) (A) (A) (A) (A)
                 (A) (A) (A) (A) (A) (A) (A) (A) (A)
 The electronic state is 1-A.
 Alpha  occ. eigenvalues --  -88.90771 -88.90702 -19.14024 -19.13975 -14.38771
 Alpha  occ. eigenvalues --  -14.38689 -14.36805 -14.36722 -10.30974 -10.30918
 Alpha  occ. eigenvalues --  -10.27933 -10.27925 -10.27829 -10.27752 -10.26834
 Alpha  occ. eigenvalues --  -10.26768 -10.25156 -10.25124 -10.24869 -10.24797
 Alpha  occ. eigenvalues --  -10.22047 -10.21974 -10.21041 -10.20955 -10.20760
 Alpha  occ. eigenvalues --  -10.20665 -10.20247 -10.20187  -7.96770  -7.96703
 Alpha  occ. eigenvalues --   -5.93243  -5.93175  -5.92927  -5.92859  -5.92295
 Alpha  occ. eigenvalues --   -5.92228  -1.05539  -1.05042  -0.98917  -0.98469
 Alpha  occ. eigenvalues --   -0.97578  -0.96642  -0.86420  -0.86353  -0.82564
 Alpha  occ. eigenvalues --   -0.82442  -0.81342  -0.77513  -0.76715  -0.76190
 Alpha  occ. eigenvalues --   -0.76013  -0.72140  -0.69354  -0.68063  -0.66984
 Alpha  occ. eigenvalues --   -0.65861  -0.62547  -0.61289  -0.60155  -0.59908
 Alpha  occ. eigenvalues --   -0.57516  -0.54526  -0.53318  -0.52190  -0.51409
 Alpha  occ. eigenvalues --   -0.50638  -0.50393  -0.49885  -0.49756  -0.48708
 Alpha  occ. eigenvalues --   -0.48500  -0.47975  -0.47954  -0.47539  -0.46404
 Alpha  occ. eigenvalues --   -0.45577  -0.44667  -0.43958  -0.43872  -0.42590
 Alpha  occ. eigenvalues --   -0.41689  -0.41611  -0.40906  -0.40639  -0.39867
 Alpha  occ. eigenvalues --   -0.37877  -0.37426  -0.37353  -0.37010  -0.35608
 Alpha  occ. eigenvalues --   -0.35234  -0.33938  -0.33862  -0.33016  -0.32915
 Alpha  occ. eigenvalues --   -0.30266  -0.30049  -0.29043  -0.28966  -0.28222
 Alpha  occ. eigenvalues --   -0.26963  -0.26674  -0.21519  -0.21428  -0.21354
 Alpha virt. eigenvalues --   -0.09142  -0.08567  -0.08431  -0.01866  -0.01812
 Alpha virt. eigenvalues --   -0.01493  -0.00924  -0.00690  -0.00443  -0.00031
 Alpha virt. eigenvalues --    0.01356   0.01765   0.01921   0.02134   0.02309
 Alpha virt. eigenvalues --    0.02664   0.02777   0.03458   0.03630   0.04259
 Alpha virt. eigenvalues --    0.04650   0.04716   0.05273   0.05609   0.05743
 Alpha virt. eigenvalues --    0.05977   0.06003   0.06848   0.06962   0.07364
 Alpha virt. eigenvalues --    0.07874   0.08107   0.08334   0.08618   0.08814
 Alpha virt. eigenvalues --    0.08822   0.09553   0.09704   0.09811   0.09843
 Alpha virt. eigenvalues --    0.10089   0.10667   0.10923   0.11000   0.11458
 Alpha virt. eigenvalues --    0.11485   0.12016   0.12413   0.12524   0.13036
 Alpha virt. eigenvalues --    0.13236   0.13428   0.13929   0.14242   0.14490
 Alpha virt. eigenvalues --    0.14707   0.15066   0.15280   0.15435   0.15779
 Alpha virt. eigenvalues --    0.15929   0.16195   0.16552   0.16803   0.16909
 Alpha virt. eigenvalues --    0.16958   0.17140   0.17473   0.17579   0.17742
 Alpha virt. eigenvalues --    0.18157   0.18406   0.18956   0.18972   0.19639
 Alpha virt. eigenvalues --    0.20060   0.20436   0.20498   0.20766   0.20806
 Alpha virt. eigenvalues --    0.21067   0.21351   0.21603   0.21760   0.22262
 Alpha virt. eigenvalues --    0.22412   0.22597   0.22723   0.22914   0.23331
 Alpha virt. eigenvalues --    0.23402   0.23474   0.23719   0.24321   0.24384
 Alpha virt. eigenvalues --    0.24391   0.24847   0.25072   0.25226   0.25358
 Alpha virt. eigenvalues --    0.26007   0.26047   0.26312   0.26365   0.26815
 Alpha virt. eigenvalues --    0.27095   0.27169   0.27339   0.27670   0.27732
 Alpha virt. eigenvalues --    0.27988   0.28360   0.28992   0.29152   0.29325
 Alpha virt. eigenvalues --    0.29900   0.29938   0.30096   0.30780   0.31024
 Alpha virt. eigenvalues --    0.31406   0.31514   0.31991   0.32103   0.32205
 Alpha virt. eigenvalues --    0.32554   0.33020   0.34032   0.34326   0.34609
 Alpha virt. eigenvalues --    0.34744   0.35211   0.35600   0.35679   0.36562
 Alpha virt. eigenvalues --    0.36887   0.37156   0.37223   0.37907   0.38394
 Alpha virt. eigenvalues --    0.39039   0.40104   0.40851   0.40923   0.41664
 Alpha virt. eigenvalues --    0.41913   0.42362   0.43178   0.43675   0.43788
 Alpha virt. eigenvalues --    0.44058   0.45696   0.45757   0.46870   0.47108
 Alpha virt. eigenvalues --    0.47214   0.47765   0.48424   0.49756   0.50007
 Alpha virt. eigenvalues --    0.50619   0.51349   0.51714   0.51773   0.56252
 Alpha virt. eigenvalues --    0.57048   0.57296   0.58216   0.58369   0.58730
 Alpha virt. eigenvalues --    0.60838   0.62101   0.62628   0.62873   0.64316
 Alpha virt. eigenvalues --    0.66004   0.66062   0.66658   0.67220   0.68307
 Alpha virt. eigenvalues --    0.68490   0.68815   0.68920   0.69706   0.70015
 Alpha virt. eigenvalues --    0.70826   0.70845   0.72030   0.72215   0.73146
 Alpha virt. eigenvalues --    0.74229   0.74409   0.74914   0.75250   0.75779
 Alpha virt. eigenvalues --    0.75927   0.76208   0.77240   0.77693   0.78106
 Alpha virt. eigenvalues --    0.78319   0.78785   0.79747   0.81126   0.81586
 Alpha virt. eigenvalues --    0.82488   0.82619   0.83455   0.84039   0.84110
 Alpha virt. eigenvalues --    0.85602   0.86120   0.87740   0.88024   0.88352
 Alpha virt. eigenvalues --    0.89788   0.89798   0.91045   0.92244   0.92867
 Alpha virt. eigenvalues --    0.93312   0.93332   0.94223   0.94351   0.95224
 Alpha virt. eigenvalues --    0.95563   0.96247   0.96703   0.96834   0.97703
 Alpha virt. eigenvalues --    0.97893   0.98472   0.98651   0.99171   0.99244
 Alpha virt. eigenvalues --    1.00798   1.02133   1.02884   1.03934   1.04954
 Alpha virt. eigenvalues --    1.05506   1.05963   1.06739   1.07509   1.08298
 Alpha virt. eigenvalues --    1.08554   1.09257   1.09443   1.10525   1.10838
 Alpha virt. eigenvalues --    1.10940   1.11630   1.11839   1.13460   1.14418
 Alpha virt. eigenvalues --    1.14599   1.15767   1.16671   1.17211   1.19379
 Alpha virt. eigenvalues --    1.19502   1.20788   1.21899   1.22552   1.22903
 Alpha virt. eigenvalues --    1.24416   1.24915   1.25071   1.26579   1.27505
 Alpha virt. eigenvalues --    1.27761   1.28040   1.28138   1.28611   1.30311
 Alpha virt. eigenvalues --    1.31547   1.32285   1.32772   1.33262   1.34160
 Alpha virt. eigenvalues --    1.34759   1.35485   1.35885   1.36375   1.36766
 Alpha virt. eigenvalues --    1.37997   1.38731   1.39047   1.39568   1.39830
 Alpha virt. eigenvalues --    1.40235   1.41006   1.41986   1.42119   1.43064
 Alpha virt. eigenvalues --    1.43774   1.43868   1.44313   1.47263   1.47421
 Alpha virt. eigenvalues --    1.48695   1.49770   1.50609   1.52422   1.52941
 Alpha virt. eigenvalues --    1.54792   1.55821   1.55942   1.57486   1.60877
 Alpha virt. eigenvalues --    1.65622   1.65745   1.66127   1.68529   1.69009
 Alpha virt. eigenvalues --    1.69206   1.69698   1.70546   1.72523   1.73906
 Alpha virt. eigenvalues --    1.75059   1.75748   1.78641   1.80115   1.80877
 Alpha virt. eigenvalues --    1.81417   1.82136   1.82471   1.83221   1.84150
 Alpha virt. eigenvalues --    1.85792   1.86461   1.87712   1.87734   1.88109
 Alpha virt. eigenvalues --    1.88793   1.89009   1.89693   1.91409   1.92098
 Alpha virt. eigenvalues --    1.92602   1.93312   1.93945   1.95679   1.95962
 Alpha virt. eigenvalues --    1.96687   1.97743   1.99490   1.99691   2.00517
 Alpha virt. eigenvalues --    2.01074   2.02181   2.02434   2.03379   2.03723
 Alpha virt. eigenvalues --    2.05364   2.05594   2.07106   2.08034   2.08318
 Alpha virt. eigenvalues --    2.08791   2.09976   2.10164   2.10365   2.11837
 Alpha virt. eigenvalues --    2.12100   2.12997   2.13614   2.15323   2.15923
 Alpha virt. eigenvalues --    2.16526   2.16971   2.17669   2.20926   2.22965
 Alpha virt. eigenvalues --    2.24284   2.25435   2.26489   2.28345   2.28793
 Alpha virt. eigenvalues --    2.28862   2.28902   2.30836   2.32208   2.34174
 Alpha virt. eigenvalues --    2.34622   2.36545   2.38065   2.39549   2.39813
 Alpha virt. eigenvalues --    2.42286   2.42477   2.42895   2.43073   2.44655
 Alpha virt. eigenvalues --    2.45847   2.46807   2.47111   2.47785   2.48736
 Alpha virt. eigenvalues --    2.48815   2.50630   2.51072   2.51789   2.52356
 Alpha virt. eigenvalues --    2.52758   2.53114   2.54929   2.55101   2.56308
 Alpha virt. eigenvalues --    2.57848   2.58819   2.59405   2.60602   2.61351
 Alpha virt. eigenvalues --    2.61771   2.63411   2.64157   2.65169   2.67217
 Alpha virt. eigenvalues --    2.67708   2.69631   2.69723   2.71711   2.71868
 Alpha virt. eigenvalues --    2.72944   2.73812   2.74852   2.77168   2.77650
 Alpha virt. eigenvalues --    2.77750   2.78730   2.80952   2.81267   2.83593
 Alpha virt. eigenvalues --    2.84268   2.85886   2.86852   2.89830   2.91731
 Alpha virt. eigenvalues --    2.92410   2.93823   2.95330   2.98879   2.99898
 Alpha virt. eigenvalues --    3.01936   3.02931   3.04935   3.05114   3.08752
 Alpha virt. eigenvalues --    3.11273   3.15776   3.16621   3.22656   3.23801
 Alpha virt. eigenvalues --    3.26386   3.27555   3.28699   3.28753   3.30101
 Alpha virt. eigenvalues --    3.30451   3.34273   3.39756   3.40492   3.42572
 Alpha virt. eigenvalues --    3.42833   3.43125   3.43739   3.45268   3.59128
 Alpha virt. eigenvalues --    3.60394   3.72098   3.72229   3.97824   3.97929
 Alpha virt. eigenvalues --    4.20547   4.22068   4.25171   4.28990   4.29676
 Alpha virt. eigenvalues --    4.33497   4.35760   4.35810   4.37705   4.38971
 Alpha virt. eigenvalues --    4.42837   4.45034   4.46027   4.48922   4.50968
 Alpha virt. eigenvalues --    4.51138   4.51312   4.54852   4.58199   4.63260
 Alpha virt. eigenvalues --    4.67287   4.76999   4.85505   4.89720   4.99478
 Alpha virt. eigenvalues --    5.09236
          Condensed to atoms (all electrons):
              1          2          3          4          5          6
     1  N    7.294248   0.348014   0.038992  -0.136491  -0.242405   0.015763
     2  C    0.348014  10.009570  -0.483913  -1.028958  -3.656842  -0.052937
     3  C    0.038992  -0.483913  10.214978  -0.092623  -0.901445   0.465721
     4  C   -0.136491  -1.028958  -0.092623  13.328310   2.069395  -0.882003
     5  C   -0.242405  -3.656842  -0.901445   2.069395  13.612067  -0.153302
     6  C    0.015763  -0.052937   0.465721  -0.882003  -0.153302   9.924333
     7  C   -0.084901   0.727914  -0.023192  -3.504257  -1.031093  -0.490428
     8  N    0.011307  -0.098458   0.020421  -0.207045  -0.136781   0.052050
     9  O   -0.072489   0.181660   0.003650   0.004771   0.061501  -0.005779
    10  O   -0.004395  -0.001362  -0.004331   0.044841   0.003601   0.004537
    11  H    0.000147   0.004107  -0.009562   0.046059   0.057059  -0.008008
    12  H    0.285620  -0.057278  -0.007333   0.058223   0.039323  -0.008832
    13  C    0.020786  -0.352578   0.130535  -0.302910  -1.112623  -1.439679
    14  C    0.002027   0.131162  -0.014747  -0.209150   0.233665  -0.476731
    15  C    0.001487  -0.038738   0.049557  -0.198894  -0.239955  -0.772111
    16  H    0.000000   0.000076  -0.000042   0.000300   0.000165   0.007956
    17  C    0.012799   0.249718  -0.062718   0.290364   0.370131   0.673205
    18  H   -0.000016  -0.001731   0.000794   0.000138   0.006187   0.003768
    19  C    0.036571   0.054762   0.030130  -0.518782  -0.856667  -0.764231
    20  H    0.001418  -0.006470   0.002163   0.002769   0.036914  -0.012286
    21  C   -0.081526  -0.999398  -0.659888  -1.269547   0.771653   0.550435
    22  N    0.000227   0.024677   0.012702  -0.071692   0.072812   0.021619
    23  C    0.025773   0.136280  -0.481602   0.230943  -0.201367  -0.014883
    24  C    0.150272   0.019614  -1.619692  -1.112051  -0.335164   0.104901
    25  C   -0.387009   0.243311   0.470695   0.573227  -1.467549  -0.560728
    26  C    0.142913   0.111058  -0.891469  -0.869089  -0.507064   0.022500
    27  H   -0.001089  -0.003635  -0.011961   0.039265   0.002543   0.002064
    28  C   -0.021646  -0.019637   0.816553   0.413248   0.312345  -0.055001
    29  H   -0.000002  -0.000030   0.004830   0.006565   0.000346   0.000787
    30  C    0.010460   0.014363  -0.808848  -0.249354  -0.191372   0.043766
    31  H    0.000070   0.000068   0.008496   0.000108   0.000288  -0.000043
    32  N   -0.020548   0.029134   0.021951   0.074994  -0.080915   0.014316
    33  C   -0.001967  -0.009960  -0.162829  -0.000953  -0.028763   0.006692
    34  H    0.002693  -0.001581   0.004777  -0.003377   0.002654  -0.000362
    35  H   -0.002220   0.000252  -0.005042   0.003334  -0.001712   0.000132
    36  C    0.000408   0.004989   0.007437  -0.032652  -0.000964  -0.166316
    37  H    0.000000   0.000112   0.000130  -0.001502   0.003502  -0.003453
    38  H    0.000000  -0.000107  -0.000340   0.002260  -0.003736   0.002408
    39  S    0.007537   0.006257   0.038838  -0.000260   0.006863  -0.002920
    40  S   -0.000066  -0.005418  -0.003745   0.010571  -0.002513   0.046020
    41  H   -0.000683   0.013922  -0.082482  -0.024535  -0.020539   0.000626
    42  H    0.000219   0.019108   0.001511  -0.019361  -0.018582  -0.079507
              7          8          9         10         11         12
     1  N   -0.084901   0.011307  -0.072489  -0.004395   0.000147   0.285620
     2  C    0.727914  -0.098458   0.181660  -0.001362   0.004107  -0.057278
     3  C   -0.023192   0.020421   0.003650  -0.004331  -0.009562  -0.007333
     4  C   -3.504257  -0.207045   0.004771   0.044841   0.046059   0.058223
     5  C   -1.031093  -0.136781   0.061501   0.003601   0.057059   0.039323
     6  C   -0.490428   0.052050  -0.005779   0.004537  -0.008008  -0.008832
     7  C    9.818367   0.326646  -0.002858   0.196256  -0.063470   0.004331
     8  N    0.326646   7.297956  -0.004202  -0.072349   0.287270   0.000140
     9  O   -0.002858  -0.004202   8.443222   0.000116   0.000016  -0.001939
    10  O    0.196256  -0.072349   0.000116   8.436492  -0.002104   0.000016
    11  H   -0.063470   0.287270   0.000016  -0.002104   0.349775   0.000000
    12  H    0.004331   0.000140  -0.001939   0.000016   0.000000   0.349604
    13  C   -0.010138   0.163849  -0.006826  -0.002701  -0.032518  -0.000049
    14  C    0.138848   0.006668   0.010162  -0.002791   0.029032  -0.000040
    15  C    0.015148   0.015461  -0.018077   0.000266  -0.002044   0.000016
    16  H    0.000060   0.000068   0.000008   0.000000   0.000000   0.000000
    17  C   -0.016444  -0.022199  -0.081683  -0.000504   0.003689   0.000866
    18  H   -0.000030   0.000009   0.000390   0.000000   0.000000   0.000000
    19  C    0.120932   0.135832  -0.090697   0.001738  -0.015755   0.001229
    20  H   -0.003530  -0.000945  -0.002620  -0.000004   0.000002   0.000000
    21  C    0.267691  -0.404486   0.141986  -0.020039  -0.020121  -0.002591
    22  N    0.027924  -0.021541  -0.000050  -0.002152   0.033110  -0.000001
    23  C    0.106009   0.001838  -0.002439   0.009889  -0.000033   0.030339
    24  C   -0.297402   0.021826   0.000000  -0.009718   0.000016  -0.032860
    25  C   -0.985014  -0.074484  -0.022357   0.128518  -0.002431  -0.024686
    26  C    0.069963   0.036347   0.001404  -0.084143   0.000961  -0.015086
    27  H   -0.007838   0.001228  -0.000004  -0.001400   0.000000   0.000003
    28  C    0.209885   0.010352  -0.000681  -0.067619   0.000743   0.004224
    29  H   -0.001825  -0.000023   0.000000   0.000344   0.000000   0.000000
    30  C   -0.031323   0.001406   0.000321  -0.016975   0.000013  -0.002611
    31  H    0.000088   0.000000   0.000000   0.000007   0.000000   0.000000
    32  N    0.024494   0.000118  -0.002512  -0.000031  -0.000002   0.034774
    33  C    0.004636   0.000418   0.000412  -0.000065   0.000000  -0.004833
    34  H   -0.000098   0.000000  -0.000024   0.000000   0.000000  -0.000136
    35  H    0.000109   0.000000   0.000002   0.000000   0.000000   0.000001
    36  C   -0.007642  -0.002172  -0.000071   0.000392  -0.004286   0.000000
    37  H    0.000159  -0.002088   0.000000   0.000002   0.000000   0.000000
    38  H   -0.001484   0.002549   0.000000  -0.000017  -0.000123   0.000000
    39  S   -0.005186  -0.000064  -0.000020   0.000133   0.000000  -0.000806
    40  S    0.003858   0.006197   0.000140  -0.000001  -0.001081   0.000000
    41  H    0.021093   0.000285  -0.000001   0.000048   0.000000   0.000104
    42  H    0.013724  -0.001726   0.000066  -0.000010   0.000224   0.000000
             13         14         15         16         17         18
     1  N    0.020786   0.002027   0.001487   0.000000   0.012799  -0.000016
     2  C   -0.352578   0.131162  -0.038738   0.000076   0.249718  -0.001731
     3  C    0.130535  -0.014747   0.049557  -0.000042  -0.062718   0.000794
     4  C   -0.302910  -0.209150  -0.198894   0.000300   0.290364   0.000138
     5  C   -1.112623   0.233665  -0.239955   0.000165   0.370131   0.006187
     6  C   -1.439679  -0.476731  -0.772111   0.007956   0.673205   0.003768
     7  C   -0.010138   0.138848   0.015148   0.000060  -0.016444  -0.000030
     8  N    0.163849   0.006668   0.015461   0.000068  -0.022199   0.000009
     9  O   -0.006826   0.010162  -0.018077   0.000008  -0.081683   0.000390
    10  O   -0.002701  -0.002791   0.000266   0.000000  -0.000504   0.000000
    11  H   -0.032518   0.029032  -0.002044   0.000000   0.003689   0.000000
    12  H   -0.000049  -0.000040   0.000016   0.000000   0.000866   0.000000
    13  C   16.415174  -3.473478   1.078470   0.011334  -2.834499  -0.000977
    14  C   -3.473478  14.252482  -5.665880   0.179249   2.282785  -0.028897
    15  C    1.078470  -5.665880  14.546476   0.095426  -2.659305   0.005292
    16  H    0.011334   0.179249   0.095426   0.562404   0.034824  -0.005815
    17  C   -2.834499   2.282785  -2.659305   0.034824   9.605908   0.256485
    18  H   -0.000977  -0.028897   0.005292  -0.005815   0.256485   0.564525
    19  C    2.928549  -2.592072   2.764305  -0.038004  -4.172616   0.078215
    20  H    0.005983  -0.008535   0.001396  -0.000132   0.093799  -0.006724
    21  C   -4.648583   0.279522  -2.725877   0.009081   1.853016  -0.002068
    22  N    0.292200   0.264035  -0.134962  -0.001001   0.030681   0.000069
    23  C    0.004575  -0.000368   0.000358   0.000000   0.000466   0.000000
    24  C   -0.029068   0.005013  -0.003736   0.000000   0.012009  -0.000003
    25  C    0.098973  -0.010574   0.006167   0.000000  -0.012740   0.000028
    26  C   -0.049699   0.002108  -0.001927   0.000000   0.003454   0.000003
    27  H    0.000428   0.000010   0.000007   0.000000  -0.000031   0.000000
    28  C    0.011048   0.000203   0.000428   0.000000  -0.001295   0.000000
    29  H   -0.000003   0.000000   0.000000   0.000000   0.000000   0.000000
    30  C   -0.003772   0.000384  -0.000223   0.000000   0.000419   0.000000
    31  H    0.000000   0.000000   0.000000   0.000000   0.000000   0.000000
    32  N    0.000498   0.000009   0.000040   0.000000   0.000403   0.000000
    33  C   -0.000327   0.000077  -0.000065   0.000000   0.000009   0.000000
    34  H   -0.000002   0.000000   0.000000   0.000000   0.000003   0.000000
    35  H    0.000000   0.000000   0.000000   0.000000   0.000000   0.000000
    36  C   -0.527307   0.145873   0.512260  -0.000973  -0.102642   0.000819
    37  H   -0.100427   0.097956   0.008141  -0.000001   0.002399   0.000000
    38  H    0.068160  -0.053324  -0.007140  -0.000001  -0.002749   0.000000
    39  S    0.000194  -0.000023   0.000017   0.000000   0.000027   0.000000
    40  S    0.492879  -0.050642  -0.973915   0.006196   0.158458  -0.003958
    41  H   -0.000124   0.000008  -0.000006   0.000000   0.000048   0.000000
    42  H    0.040166   0.040578   0.029926   0.000010  -0.028554  -0.000149
             19         20         21         22         23         24
     1  N    0.036571   0.001418  -0.081526   0.000227   0.025773   0.150272
     2  C    0.054762  -0.006470  -0.999398   0.024677   0.136280   0.019614
     3  C    0.030130   0.002163  -0.659888   0.012702  -0.481602  -1.619692
     4  C   -0.518782   0.002769  -1.269547  -0.071692   0.230943  -1.112051
     5  C   -0.856667   0.036914   0.771653   0.072812  -0.201367  -0.335164
     6  C   -0.764231  -0.012286   0.550435   0.021619  -0.014883   0.104901
     7  C    0.120932  -0.003530   0.267691   0.027924   0.106009  -0.297402
     8  N    0.135832  -0.000945  -0.404486  -0.021541   0.001838   0.021826
     9  O   -0.090697  -0.002620   0.141986  -0.000050  -0.002439   0.000000
    10  O    0.001738  -0.000004  -0.020039  -0.002152   0.009889  -0.009718
    11  H   -0.015755   0.000002  -0.020121   0.033110  -0.000033   0.000016
    12  H    0.001229   0.000000  -0.002591  -0.000001   0.030339  -0.032860
    13  C    2.928549   0.005983  -4.648583   0.292200   0.004575  -0.029068
    14  C   -2.592072  -0.008535   0.279522   0.264035  -0.000368   0.005013
    15  C    2.764305   0.001396  -2.725877  -0.134962   0.000358  -0.003736
    16  H   -0.038004  -0.000132   0.009081  -0.001001   0.000000   0.000000
    17  C   -4.172616   0.093799   1.853016   0.030681   0.000466   0.012009
    18  H    0.078215  -0.006724  -0.002068   0.000069   0.000000  -0.000003
    19  C   12.819222   0.205361  -3.832168   0.035525   0.001569  -0.054822
    20  H    0.205361   0.503973   0.007510  -0.000818   0.000013   0.000418
    21  C   -3.832168   0.007510  17.306037  -0.394309  -0.009172   0.094186
    22  N    0.035525  -0.000818  -0.394309   7.050668   0.000001   0.000516
    23  C    0.001569   0.000013  -0.009172   0.000001  14.458892  -3.279619
    24  C   -0.054822   0.000418   0.094186   0.000516  -3.279619  16.080268
    25  C    0.003659  -0.000152  -0.391980  -0.005151  -0.049126  -4.347171
    26  C    0.000530  -0.000162   0.003206   0.002733  -2.574071   2.865016
    27  H   -0.000152   0.000000  -0.000217   0.000000  -0.008102   0.000554
    28  C    0.003893  -0.000029  -0.008068   0.000410   2.277626  -2.750994
    29  H    0.000003   0.000000   0.000028   0.000000  -0.026742  -0.002763
    30  C   -0.001891   0.000006   0.005215   0.000044  -5.742312   1.077556
    31  H    0.000000   0.000000   0.000000   0.000000   0.181897   0.010415
    32  N    0.003161   0.000001  -0.005668   0.000014   0.273035   0.293592
    33  C   -0.000567   0.000005   0.001316   0.000007   0.095985  -0.468458
    34  H   -0.000002   0.000000  -0.000004   0.000000  -0.046211   0.058567
    35  H    0.000001   0.000000  -0.000001   0.000000   0.095217  -0.094483
    36  C    0.195971   0.000004  -0.377667   0.056710   0.000068  -0.000330
    37  H   -0.002332   0.000000  -0.001922  -0.058012   0.000000   0.000000
    38  H    0.003119   0.000000  -0.000437  -0.042771   0.000000  -0.000002
    39  S    0.000040  -0.000001  -0.000368  -0.000002   0.004101   0.432846
    40  S   -0.195564   0.000074   0.298662  -0.027137  -0.000018   0.000165
    41  H   -0.000060   0.000000   0.000063   0.000001   0.034250   0.047675
    42  H    0.063085  -0.001397   0.203518  -0.001609   0.000007  -0.000123
             25         26         27         28         29         30
     1  N   -0.387009   0.142913  -0.001089  -0.021646  -0.000002   0.010460
     2  C    0.243311   0.111058  -0.003635  -0.019637  -0.000030   0.014363
     3  C    0.470695  -0.891469  -0.011961   0.816553   0.004830  -0.808848
     4  C    0.573227  -0.869089   0.039265   0.413248   0.006565  -0.249354
     5  C   -1.467549  -0.507064   0.002543   0.312345   0.000346  -0.191372
     6  C   -0.560728   0.022500   0.002064  -0.055001   0.000787   0.043766
[...]
 89,0.00003672,0.00001802,0.00000494,0.00000015,-0.00124908,0.00300680,
 -0.00213111,-0.00217333,0.00040793,-0.00003054,0.00147401,0.00138774,0
 .00018585,-0.00016976,-0.00000411,0.00035545,-0.00016402,-0.00018215,-
 0.00085395,0.00007322,0.00002997,0.00003463,0.00007070,0.00010647,0.00
 016149,-0.00006497,-0.00004850,0.00018703,-0.00016353,-0.00028309,-0.0
 0014740,-0.00275528,-0.01242149,-0.00503149,0.00000080,0.00000107,0.00
 000578,0.00000873,0.00000802,-0.00000872,-0.00000266,-0.00000398,-0.00
 000611,-0.00000926,-0.00001123,-0.00000582,0.00000283,-0.00000378,0.00
 000128,0.00000065,0.00000410,0.00000039,-0.00000129,0.00000126,0.00000
 336,-0.00000098,-0.00000140,-0.00000285,-0.00000086,-0.00000007,0.0000
 0112,-0.00001974,0.00000089,0.00000164,0.00000926,-0.00000054,-0.00000
 355,0.00000005,0.00000037,0.00000127,-0.00000150,-0.00000001,0.0000000
 3,0.04794718,-0.12430835,-0.15761627,0.00723552,-0.01686726,-0.0143072
 1,-0.04516272,0.13511448,0.17264932,-0.00135125,0.00056323,-0.00023630
 ,0.00074109,-0.00096299,0.00003341,0.00063542,-0.00041155,0.00057112,-
 0.00031864,-0.00007643,0.00002225,-0.00027441,-0.00005674,-0.00004330,
 0.00010519,0.00000043,-0.00005331,0.00089240,-0.00013760,-0.00001330,-
 0.00050302,0.00015652,0.00000279,-0.00027266,0.00080207,-0.00002964,-0
 .00060888,0.00007043,0.00006600,0.00016995,0.00003976,0.00000489,0.000
 65263,-0.00050299,0.00029296,0.00010144,0.00004830,0.00005375,-0.00000
 550,0.00002330,-0.00001583,0.00000843,-0.00002595,0.00000558,-0.000013
 48,0.00000148,-0.00000613,-0.00000463,0.00003906,-0.00001023,-0.000008
 00,0.00001395,-0.00001380,-0.00006092,-0.00008445,0.00004065,0.0000577
 6,-0.00001414,-0.00000027,-0.00002624,-0.00000925,0.00004358,-0.000165
 90,0.00000606,-0.00002570,-0.10269132,-0.03853618,0.04143592,-0.029170
 48,-0.00822593,0.01804488,0.00031034,0.00216014,0.00076724,-0.00223047
 ,-0.00076663,0.00044947,0.00026393,0.00038805,-0.00015966,0.00478253,0
 .00349958,0.00065496,0.00028423,0.00018222,0.00002573,-0.00050110,-0.0
 1448031,0.00046393,-0.00025971,0.00067358,-0.00138618,-0.02715643,0.00
 791356,0.02112542,-0.04841754,0.00191338,0.01082087,-0.00172522,0.0070
 7949,0.00468662,0.00674113,-0.00317229,-0.00047966,0.00008236,-0.00000
 496,0.00003861,-0.00001157,0.00000111,-0.00000023,0.00000077,0.0000008
 5,-0.00000641,0.20007781,0.00054773,0.00062034,0.00004699,-0.00030080,
 -0.00001879,0.00005076,0.00029755,-0.00123295,-0.00013235,0.00058465,0
 .00048715,0.00006398,0.00039215,0.00023127,0.00001263,-0.00016174,-0.0
 0025717,0.00000701,0.00060873,-0.00116188,-0.00000547,-0.00032642,0.00
 042834,-0.00001607,0.00004093,0.00034689,-0.00001297,-0.00070172,0.000
 76506,0.00006669,0.00003635,0.00000443,0.00000007,-0.00166216,0.000016
 11,0.00000464,0.00001495,-0.00003814,0.00001554,-0.00002229,-0.0000000
 5,-0.00001771,-0.00000982,0.00000522,-0.00000489,-0.00000077,-0.000000
 34,-0.00000054,-0.00000054,-0.00000413,-0.00000045,-0.00000413,0.00000
 526,-0.00000408,-0.00000483,-0.00000968,0.00000346,-0.00001228,-0.0000
 0759,-0.00000145,-0.00000246,0.00001305,0.00000456,-0.00004031,0.00003
 978,-0.00000870,-0.06010393,-0.08046625,0.02250360,-0.01785295,-0.0032
 5066,0.01000632,0.00115077,-0.00014320,-0.00225512,-0.00256451,-0.0011
 1947,0.00166355,0.00033564,0.00045806,0.00016081,0.00550540,0.00017775
 ,-0.00423959,-0.00099544,-0.00036456,0.00036292,-0.02741443,-0.0230347
 1,0.01022009,0.00016556,0.00058494,0.00065063,0.02303209,-0.00050140,-
 0.01516517,0.01639303,-0.06254651,-0.01675174,0.01052212,-0.01356458,-
 0.01412907,0.01066622,-0.01100674,-0.00694904,0.00002374,-0.00000623,0
 .00000666,0.00000123,0.00000206,-0.00000019,0.00000322,0.00000415,0.00
 000139,0.04153276,0.19444739,0.00119570,-0.00031794,0.00006539,-0.0006
 5721,0.00070217,-0.00006481,-0.00036054,0.00013932,-0.00018753,0.00031
 643,0.00009913,-0.00001380,0.00037148,0.00009010,0.00003344,-0.0001402
 0,-0.00008934,0.00004705,-0.00037760,-0.00013338,0.00001227,0.00023595
 ,0.00004791,-0.00001062,0.00020070,-0.00046114,0.00003503,0.00022968,0
 .00012923,-0.00003258,-0.00009600,-0.00002078,-0.00000503,-0.00092373,
 0.00041737,-0.00003953,-0.00005638,-0.00003844,-0.00003587,-0.00000300
 ,-0.00001318,0.00001254,-0.00000405,0.00001458,-0.00000691,0.00000878,
 -0.00000099,0.00000299,0.00000170,-0.00002057,0.00001039,0.00000526,-0
 .00000850,0.00000632,0.00003503,0.00004799,-0.00002681,-0.00004098,0.0
 0000728,-0.00000379,0.00001584,0.00001200,-0.00001658,0.00009308,0.000
 00454,0.00001491,0.03693672,0.00997814,-0.04017389,0.01677661,0.003811
 27,-0.00655421,0.00096889,-0.00277908,0.00089283,-0.00008642,0.0010232
 9,-0.00020670,-0.00025269,0.00001001,-0.00015981,0.00146455,-0.0029472
 3,0.00207586,-0.00020357,-0.00027664,0.00033864,-0.00371291,0.00075895
 ,0.00770982,-0.00142254,0.00040563,-0.00153200,0.02485047,-0.00584411,
 -0.01303858,0.01361077,-0.00813845,-0.04204673,-0.00167806,0.00287992,
 0.00684983,0.00974687,-0.01304085,-0.00376540,-0.00004433,0.00000205,-
 0.00002325,0.00000701,-0.00000009,0.00000068,0.00000070,0.00000050,0.0
 0000390,-0.09730647,0.01381487,0.08989668,-0.00050703,0.00015568,0.000
 00199,0.00089902,-0.00013390,0.00000117,0.00010911,0.00000256,0.000052
 15,-0.00028083,-0.00005734,0.00005023,-0.00032528,-0.00007889,-0.00001
 455,0.00063219,-0.00043012,-0.00057383,0.00075230,-0.00097524,-0.00002
 098,-0.00136781,0.00057519,0.00024577,-0.00061361,0.00006586,-0.000057
 53,-0.00027569,0.00081023,0.00001307,0.00066405,-0.00051801,-0.0002913
 7,0.00017160,0.00004012,-0.00000914,-0.02976670,-0.00877087,-0.0174053
 4,-0.10402003,-0.03978366,-0.03925359,-0.00043190,-0.01448962,0.000072
 40,-0.00021115,0.00070274,0.00134471,0.00474250,0.00353151,-0.00079857
 ,0.00028759,0.00018639,-0.00002979,-0.00223583,-0.00079549,-0.00039199
 ,0.00027088,0.00039171,0.00014155,0.00027950,0.00218767,-0.00081628,-0
 .02796431,0.00744220,-0.02107627,-0.00000494,0.00002475,0.00001612,0.0
 0010087,0.00004796,-0.00005803,-0.00002705,-0.00001052,-0.00004270,-0.
 00006248,-0.00008654,-0.00003822,0.00005854,-0.00001427,-0.00000037,-0
 .00000414,0.00003991,0.00000982,-0.00000784,0.00001449,0.00001370,0.00
 000845,-0.00002706,-0.00000584,-0.00001362,0.00000171,0.00000647,-0.00
 016697,0.00000666,0.00002863,0.00008240,-0.00000592,-0.00004012,0.0000
 0087,0.00000093,0.00000643,-0.00001179,0.00000107,0.00000034,-0.048848
 37,0.00176977,-0.01075784,0.00657380,-0.00293028,0.00037627,-0.0017796
 4,0.00690584,-0.00472712,-0.00006626,0.00000676,0.00004161,0.20343107,
 -0.00033227,0.00042723,0.00000976,0.00061870,-0.00115731,0.00002641,-0
 .00015825,-0.00025448,0.00000439,0.00038165,0.00022828,-0.00002441,0.0
 0057461,0.00048233,-0.00008772,0.00030977,-0.00123248,0.00015521,-0.00
 028388,-0.00003879,-0.00004683,0.00051445,0.00062688,-0.00007110,-0.00
 070875,0.00075920,-0.00007576,0.00003576,0.00035927,0.00000357,-0.0016
 3661,0.00000519,0.00002280,0.00003886,0.00000492,-0.00000096,-0.018467
 08,-0.00361951,-0.00975948,-0.06143907,-0.08129042,-0.02031192,-0.0274
 6907,-0.02329888,-0.00890320,0.00019167,0.00055470,-0.00071070,0.00553
 677,0.00037098,0.00418947,-0.00099564,-0.00036626,-0.00032645,-0.00258
 912,-0.00119035,-0.00159178,0.00033914,0.00045279,-0.00018333,0.001163
 61,-0.00000741,0.00226005,0.02261527,0.00004940,0.01442294,-0.00002249
 ,0.00000046,0.00001714,0.00001725,-0.00003816,-0.00001524,-0.00000279,
 0.00001300,-0.00000534,-0.00000575,-0.00001092,-0.00000341,-0.00001110
 ,-0.00000769,0.00000173,-0.00000076,-0.00000401,0.00000056,-0.00000416
 ,0.00000570,0.00000419,-0.00001005,0.00000551,0.00000512,-0.00000094,-
 0.00000027,0.00000062,-0.00004266,0.00003980,0.00000884,0.00002455,-0.
 00000641,-0.00000758,0.00000321,0.00000415,-0.00000146,0.00000111,0.00
 000210,0.00000014,0.01631745,-0.06186460,0.01700591,0.01051873,-0.0104
 6405,0.00694660,0.01081617,-0.01325022,0.01448548,0.00000595,0.0000185
 5,-0.00000018,0.04384331,0.19360635,-0.00021833,-0.00006258,-0.0000053
 2,0.00034572,0.00016690,0.00000107,0.00014360,0.00009726,0.00004109,-0
 .00037625,-0.00009389,0.00004200,-0.00032662,-0.00011091,-0.00000264,0
 .00033786,-0.00010377,-0.00018438,0.00065108,-0.00068640,-0.00005568,-
 0.00118500,0.00029298,0.00007537,-0.00020049,-0.00015152,-0.00002186,-
 0.00019647,0.00043838,0.00002581,0.00095600,-0.00040985,-0.00003988,0.
 00009180,0.00001970,-0.00000711,-0.01587646,-0.00373376,-0.00558899,-0
 .03417102,-0.00816407,-0.03802121,0.00459844,0.00033103,0.00790444,0.0
 0139485,-0.00047467,-0.00155033,-0.00166185,0.00293220,0.00192271,0.00
 023134,0.00029244,0.00033692,0.00019212,-0.00098310,-0.00013069,0.0002
 3611,-0.00003342,-0.00016147,-0.00099056,0.00276594,0.00078784,-0.0252
 1008,0.00536703,-0.01278133,0.00000373,0.00001341,0.00001207,0.0000532
 8,0.00003755,-0.00003676,-0.00001567,-0.00001261,-0.00001530,-0.000034
 19,-0.00004699,-0.00002442,0.00004016,-0.00000691,-0.00000438,-0.00000
 141,0.00002054,0.00001001,-0.00000495,0.00000821,0.00000579,0.00000422
 ,-0.00001476,-0.00000685,-0.00000846,0.00000102,0.00000293,-0.00008880
 ,-0.00000522,0.00001590,0.00004200,-0.00000244,-0.00002306,-0.00000077
 ,-0.00000053,0.00000382,-0.00000681,0.00000002,0.00000075,-0.01393920,
 0.00864694,-0.04229856,-0.01021859,0.01327714,-0.00414079,0.00153854,-
 0.00245912,0.00659001,-0.00004029,0.00000040,0.00002440,0.09417316,-0.
 01740707,0.08738516,0.00180177,-0.00153276,0.00088264,-0.00206792,-0.0
 0001627,0.00050626,-0.01537121,0.00572979,-0.02939878,-0.00058801,-0.0
 0071467,0.00098443,-0.00118899,0.00072518,0.00177285,0.00025765,0.0009
 5863,-0.00000408,0.00036664,0.00206777,-0.00104681,0.00055702,-0.00003
 328,0.00019743,0.00048576,-0.00006744,-0.00001816,0.00053419,-0.001486
 99,0.00050793,0.00010255,0.00001626,-0.00000065,-0.00035126,0.00019840
 ,-0.00034536,0.00006633,0.00015980,0.00001504,-0.00001947,-0.00002072,
 -0.00002004,0.00000390,-0.00001638,0.00000975,-0.00000620,0.00000375,-
 0.00000338,0.00001171,0.00006684,-0.00001259,-0.00001230,0.00001060,-0
 .00002058,-0.00007492,-0.00010054,0.00004424,-0.00004793,-0.00002457,-
 0.00001221,-0.00006847,-0.00005685,-0.00021785,-0.00011469,-0.00001600
 ,-0.00000621,-0.00197224,-0.00052793,-0.00129528,0.00304014,-0.0054271
 5,0.02348187,-0.04736447,0.00124233,-0.05179559,0.00178941,-0.00107426
 ,-0.00070824,0.00001257,-0.00022016,0.00020501,-0.00106492,0.00027970,
 0.00046966,-0.00007681,0.00006938,-0.00006222,0.00042716,0.00091798,-0
 .00022303,0.00013906,-0.00002975,0.00022624,0.00068079,0.00039336,0.00
 169948,-0.00056136,-0.00023996,-0.00228588,0.00003461,0.00037652,0.000
 12145,-0.00060778,-0.00033856,0.00027389,0.00005544,-0.00000177,0.0000
 2221,-0.00001303,0.00000015,-0.00000226,-0.00000450,-0.00000204,-0.000
 00792,-0.00001125,0.00031520,0.00022231,-0.00005307,0.00000393,-0.0000
 2974,0.06132454,-0.00032477,0.00000255,-0.00090755,0.00064536,-0.00007
 334,-0.00036876,0.00716715,-0.00077364,0.01520604,-0.00066917,0.000155
 74,-0.00030134,0.00073998,-0.00035196,-0.00067418,-0.00024246,-0.00043
 651,-0.00003091,-0.00022249,0.00022044,0.00030228,-0.00013417,0.000038
 54,-0.00000673,-0.00014210,0.00009246,0.00002958,0.00012346,0.00002753
 ,-0.00006753,-0.00007019,-0.00000620,-0.00001176,0.00020293,-0.0001807
 9,0.00053724,-0.00003641,-0.00005484,-0.00000921,0.00001102,0.00000316
 ,0.00001107,-0.00000106,0.00000877,-0.00000359,0.00000368,-0.00000153,
 0.00000187,-0.00000392,-0.00002904,0.00000581,0.00000544,-0.00000507,0
 .00000902,0.00003462,0.00004011,-0.00002502,0.00001280,0.00001316,0.00
 000582,0.00002804,0.00002157,0.00007553,0.00006439,0.00000189,0.000010
 73,-0.00141645,-0.00001877,0.00107407,0.00146111,-0.00428795,0.0179984
 9,0.00066370,-0.03645116,0.00728371,-0.00410519,-0.00381331,-0.0318646
 5,-0.00006149,0.00032818,0.00120419,-0.00023185,-0.00320639,-0.0003659
 5,0.00144486,-0.00079411,0.00170337,-0.00186534,-0.00018125,-0.0003118
 2,0.00003898,-0.00001599,-0.00000787,-0.00114698,0.00095716,0.00064427
 ,-0.00050381,0.00026416,-0.00125674,0.00015931,0.00023763,0.00000858,-
 0.00037090,-0.00013539,0.00020351,-0.00003135,0.00000036,-0.00001640,0
 .00000493,-0.00000047,0.00000097,0.00000131,0.00000083,0.00000290,0.00
 032684,0.00008397,-0.00024880,0.00002672,-0.00000424,0.00001628,-0.001
 59966,0.04832570,0.00016786,-0.00102669,0.00009122,-0.00059161,-0.0000
 9538,-0.00007791,-0.00649095,0.00233087,-0.00196884,0.00160577,0.00068
 117,0.00051925,-0.00044849,0.00045987,0.00000063,0.00026249,0.00018511
 ,0.00000496,-0.00005617,-0.00075087,0.00000367,-0.00001451,-0.00011175
 ,0.00005347,0.00004975,0.00013881,0.00005427,-0.00022601,0.00030223,-0
 .00012538,-0.00000785,-0.00000919,-0.00000102,0.00023658,0.00012006,-0
 .00022131,-0.00001507,-0.00000919,-0.00000159,-0.00000101,-0.00000074,
 -0.00000179,-0.00000078,0.00000187,-0.00000153,0.00000099,-0.00000034,
 0.00000055,-0.00000117,-0.00000597,0.00000296,0.00000058,-0.00000130,0
 .00000179,0.00001024,0.00001310,-0.00000143,-0.00000541,-0.00000338,-0
 .00000019,-0.00002037,-0.00000573,-0.00002290,0.00001177,0.00000242,0.
 00000063,0.00035801,0.00114824,0.00014387,0.00150038,0.00389324,-0.016
 78248,-0.05070728,0.01263728,-0.26788061,-0.00061152,-0.00709618,-0.01
 153579,0.00003722,-0.00031101,0.00039682,-0.00197354,-0.00105060,0.001
 38974,0.00053397,-0.00030330,0.00043224,-0.00000890,0.00041414,-0.0003
 3931,-0.00004252,0.00002337,-0.00010302,-0.00103254,-0.00205373,0.0011
 8928,0.00144217,0.00044707,0.00121725,-0.00021844,-0.00031504,0.000028
 30,0.00013931,0.00020339,-0.00023669,-0.00000500,-0.00000023,-0.000002
 88,0.00000174,0.00000024,0.00000010,0.00000050,0.00000037,0.00000116,0
 .00018209,0.00002780,-0.00009248,0.00000608,0.00000111,0.00000379,0.05
 590261,-0.00986876,0.29386126,0.00055367,-0.00003672,-0.00020530,0.000
 38564,0.00210743,0.00098361,0.00025282,0.00095514,-0.00002597,-0.00121
 231,0.00066942,-0.00177058,-0.00063281,-0.00075213,-0.00094422,-0.0147
 4205,0.00648207,0.02946205,-0.00206580,-0.00002835,-0.00047090,0.00178
 341,-0.00153816,-0.00087131,0.00052929,-0.00150521,-0.00047894,0.00048
 511,-0.00006926,0.00001250,-0.00034949,0.00020547,0.00034228,0.0001026
 3,0.00001637,-0.00000162,0.00259797,-0.00613361,-0.02365993,-0.0019548
 3,-0.00051218,0.00134666,0.00043110,0.00091609,0.00018484,0.00013579,-
 0.00003634,-0.00022952,-0.00103790,0.00028699,-0.00043518,-0.00008526,
 0.00007673,0.00006964,0.00180944,-0.00093556,0.00049229,0.00000851,-0.
 00022003,-0.00019207,-0.04563834,0.00231121,0.04786148,0.00066948,0.00
 038343,-0.00170117,-0.00001923,-0.00001996,0.00002096,0.00006627,0.000
 15957,-0.00002072,-0.00006424,-0.00005088,0.00022022,-0.00007578,-0.00
 010199,-0.00004034,-0.00004761,-0.00002419,0.00001373,0.00001192,0.000
 06730,0.00001071,-0.00001195,0.00001118,0.00002055,0.00000383,-0.00001
 677,-0.00000956,-0.00000613,0.00000383,0.00000340,-0.00011474,-0.00001
 587,0.00000863,0.00005512,-0.00000238,-0.00002315,-0.00000435,-0.00000
 184,0.00000808,-0.00001303,0.00000022,0.00000249,-0.00054594,-0.000185
 32,0.00232230,-0.00061470,-0.00034929,-0.00025789,0.00003618,0.0003785
 1,-0.00013185,-0.00005259,0.00000471,0.00003062,-0.00001846,0.00030850
 ,-0.00023208,-0.00005045,0.00001316,0.00002898,0.05943981,-0.00013369,
 0.00004177,0.00000938,-0.00022646,0.00023225,-0.00030470,-0.00024888,-
 0.00044055,0.00004733,0.00076397,-0.00034639,0.00067075,-0.00070631,0.
 00014596,0.00032397,0.00707515,-0.00125073,-0.01535844,0.00066783,-0.0
 0006060,0.00035674,-0.00031368,0.00005518,0.00091437,0.00013050,0.0000
 2130,0.00006138,-0.00014398,0.00008785,-0.00002801,0.00018709,-0.00019
 863,-0.00054129,-0.00006972,-0.00000558,0.00001312,0.00109739,-0.00488
 659,-0.01833637,-0.00144357,-0.00007830,-0.00104325,-0.00185882,-0.000
 18386,0.00034005,0.00004015,-0.00001647,0.00000490,-0.00017040,-0.0031
 6488,0.00049215,0.00140030,-0.00083132,-0.00169404,-0.00353401,-0.0027
 6662,0.03169437,-0.00008345,0.00030418,-0.00120034,0.00179710,-0.03715
 830,-0.01355698,-0.00112965,0.00099547,-0.00061899,0.00001088,0.000002
 74,-0.00001155,-0.00003573,-0.00005438,0.00001135,0.00002717,0.0000196
 8,-0.00007725,0.00003477,0.00004046,0.00002341,0.00001286,0.00001309,-
 0.00000643,-0.00000400,-0.00002911,-0.00000497,0.00000527,-0.00000526,
 -0.00000893,-0.00000101,0.00000890,0.00000344,0.00000361,-0.00000156,-
 0.00000187,0.00006386,0.00000151,-0.00001185,-0.00003093,0.00000081,0.
 00001684,0.00000124,0.00000076,-0.00000292,0.00000487,-0.00000050,-0.0
 0000103,-0.00051975,0.00028682,0.00129063,-0.00037796,-0.00014626,-0.0
 0019928,0.00016489,0.00024563,-0.00001730,0.00002629,-0.00000472,-0.00
 001652,0.00032597,0.00008968,0.00023823,0.00001216,-0.00000197,-0.0000
 1240,-0.00282128,0.04903852,0.00000956,0.00011245,0.00005368,0.0000554
 0,0.00070722,-0.00002695,-0.00026009,-0.00018952,0.00001350,0.00045010
 ,-0.00046196,0.00001795,-0.00156659,-0.00065776,0.00057392,0.00652626,
 -0.00246552,-0.00212090,0.00060843,0.00009488,-0.00009207,-0.00018948,
 0.00105478,0.00005691,0.00021098,-0.00027934,-0.00011428,-0.00005351,-
 0.00013833,0.00005948,-0.00023948,-0.00012429,-0.00020521,0.00000775,0
 .00000888,-0.00000173,-0.00186956,-0.00410670,-0.01574187,-0.00028175,
 -0.00113365,0.00018560,0.00004578,-0.00043456,-0.00034048,0.00003722,-
 0.00002507,-0.00009929,0.00202151,0.00116842,0.00132115,-0.00056300,0.
 00033631,0.00047788,0.00047169,0.00687640,-0.01260236,-0.00002815,0.00
 031754,0.00042488,0.04678787,-0.01892037,-0.26889835,0.00107198,0.0020
 5223,0.00116238,0.00000120,0.00000153,-0.00000137,0.00001466,0.0000078
 3,-0.00000238,0.00002005,0.00000520,-0.00002543,-0.00000968,-0.0000125
 8,-0.00000101,0.00000581,0.00000344,-0.00000045,0.00000100,0.00000591,
 0.00000306,-0.00000052,0.00000119,0.00000160,0.00000074,-0.00000213,-0
 .00000152,-0.00000092,0.00000027,0.00000048,-0.00001147,-0.00000207,0.
 00000114,0.00000504,-0.00000006,-0.00000317,-0.00000048,-0.00000034,0.
 00000110,-0.00000163,-0.00000022,0.00000013,-0.00139755,-0.00041858,0.
 00117913,-0.00012250,-0.00019965,-0.00021892,0.00021378,0.00030255,0.0
 0001871,-0.00000601,-0.00000075,0.00000389,-0.00019225,-0.00003814,-0.
 00009090,-0.00002847,0.00001225,-0.00000005,-0.05174371,0.01654232,0.2
 9503215||-0.00000109,0.00000132,0.00000004,-0.00000201,0.00000020,-0.0
 0000011,-0.00000018,0.00000181,0.00000024,-0.00000003,0.00000047,-0.00
 000029,0.00000015,-0.00000056,0.00000034,-0.00000034,-0.00000236,-0.00
 000003,0.00000253,-0.00000055,0.00000002,0.00000045,-0.00000072,-0.000
 00045,-0.00000230,-0.00000005,0.00000003,0.00000226,0.00000026,-0.0000
 0002,0.00000182,-0.00000195,0.00000030,-0.00000081,0.00000169,-0.00000
 015,-0.00000024,-0.00000336,-0.00000033,-0.00000050,-0.00000441,0.0000
 0024,-0.00000147,-0.00000417,-0.00000002,-0.00000198,-0.00000476,0.000
 00016,-0.00000211,-0.00000325,0.00000011,-0.00000294,-0.00000321,0.000
 00002,-0.00000188,-0.00000255,-0.00000027,-0.00000227,-0.00000168,0.00
 000021,-0.00000053,-0.00000196,0.00000078,0.00000110,-0.00000356,0.000
 00004,0.00000044,0.00000443,-0.00000002,-0.00000002,0.00000322,-0.0000
 0020,0.00000099,0.00000199,-0.00000012,0.00000167,0.00000272,0.0000000
 5,0.00000217,0.00000176,0.,0.00000214,0.00000319,-0.00000008,0.0000030
 1,0.00000320,-0.00000009,0.00000149,0.00000419,-0.00000006,0.00000190,
 0.00000475,-0.00000008,-0.00000157,0.00000383,0.00000018,-0.00000149,0
 .00000449,-0.00000017,-0.00000218,0.00000429,-0.00000004,-0.00000194,0
 .00000502,-0.00000003,0.00000169,-0.00000471,0.00000007,0.00000193,-0.
 00000498,0.00000011,0.00000209,-0.00000424,0.00000002,-0.00000054,0.00
 000529,-0.00000004,0.00000046,-0.00000522,-0.00000010,0.00000051,0.000
 00276,-0.00000004,-0.00000041,-0.00000264,-0.00000022|||@


 The number of Unix installations has grown to 10,
  with more expected.
                  -- The Unix Programmer's Manual,
                     2nd Edition, June, 1972.
 Job cpu time:  0 days  4 hours 26 minutes 47.0 seconds.
 File lengths (MBytes):  RWF=   1488 Int=      0 D2E=      0 Chk=     25 Scr=      1
 Normal termination of Gaussian 09 at Wed Sep 13 17:03:12 2023.
