 Entering Gaussian System, Link 0=g09
 Initial command:
 /apps/software//g09/l1.exe /scratch/nathalia.rosa/83252.cluster.abaxnet/Gau-2764.inp -scrdir=/scratch/nathalia.rosa/83252.cluster.abaxnet/
 Entering Link 1 = /apps/software//g09/l1.exe PID=      2765.
  
 Copyright (c) 1988,1990,1992,1993,1995,1998,2003,2009, Gaussian, Inc.
                  All Rights Reserved.
  
 This is part of the Gaussian(R) 09 program.  It is based on
 the Gaussian(R) 03 system (copyright 2003, Gaussian, Inc.),
 the Gaussian(R) 98 system (copyright 1998, Gaussian, Inc.),
 the Gaussian(R) 94 system (copyright 1995, Gaussian, Inc.),
 the Gaussian 92(TM) system (copyright 1992, Gaussian, Inc.),
 the Gaussian 90(TM) system (copyright 1990, Gaussian, Inc.),
 the Gaussian 88(TM) system (copyright 1988, Gaussian, Inc.),
 the Gaussian 86(TM) system (copyright 1986, Carnegie Mellon
 University), and the Gaussian 82(TM) system (copyright 1983,
 Carnegie Mellon University). Gaussian is a federally registered
 trademark of Gaussian, Inc.
  
 This software contains proprietary and confidential information,
 including trade secrets, belonging to Gaussian, Inc.
  
 This software is provided under written license and may be
 used, copied, transmitted, or stored only in accord with that
 written license.
  
 The following legend is applicable only to US Government
 contracts under FAR:
  
                    RESTRICTED RIGHTS LEGEND
  
 Use, reproduction and disclosure by the US Government is
 subject to restrictions as set forth in subparagraphs (a)
 and (c) of the Commercial Computer Software - Restricted
 Rights clause in FAR 52.227-19.
  
 Gaussian, Inc.
 340 Quinnipiac St., Bldg. 40, Wallingford CT 06492
  
  
 ---------------------------------------------------------------
 Warning -- This program may not be used in any manner that
 competes with the business of Gaussian, Inc. or will provide
 assistance to any competitor of Gaussian, Inc.  The licensee
 of this program is prohibited from giving any competitor of
 Gaussian, Inc. access to this program.  By using this program,
 the user acknowledges that Gaussian, Inc. is engaged in the
 business of creating and licensing software in the field of
 computational chemistry and represents and warrants to the
 licensee that it is not a competitor of Gaussian, Inc. and that
 it will not use this program in any manner prohibited above.
 ---------------------------------------------------------------
  

 Cite this work as:
 Gaussian 09, Revision A.02,
 M. J. Frisch, G. W. Trucks, H. B. Schlegel, G. E. Scuseria, 
 M. A. Robb, J. R. Cheeseman, G. Scalmani, V. Barone, B. Mennucci, 
 G. A. Petersson, H. Nakatsuji, M. Caricato, X. Li, H. P. Hratchian, 
 A. F. Izmaylov, J. Bloino, G. Zheng, J. L. Sonnenberg, M. Hada, 
 M. Ehara, K. Toyota, R. Fukuda, J. Hasegawa, M. Ishida, T. Nakajima, 
 Y. Honda, O. Kitao, H. Nakai, T. Vreven, J. A. Montgomery, Jr., 
 J. E. Peralta, F. Ogliaro, M. Bearpark, J. J. Heyd, E. Brothers, 
 K. N. Kudin, V. N. Staroverov, R. Kobayashi, J. Normand, 
 K. Raghavachari, A. Rendell, J. C. Burant, S. S. Iyengar, J. Tomasi, 
 M. Cossi, N. Rega, J. M. Millam, M. Klene, J. E. Knox, J. B. Cross, 
 V. Bakken, C. Adamo, J. Jaramillo, R. Gomperts, R. E. Stratmann, 
 O. Yazyev, A. J. Austin, R. Cammi, C. Pomelli, J. W. Ochterski, 
 R. L. Martin, K. Morokuma, V. G. Zakrzewski, G. A. Voth, 
 P. Salvador, J. J. Dannenberg, S. Dapprich, A. D. Daniels, 
 O. Farkas, J. B. Foresman, J. V. Ortiz, J. Cioslowski, 
 and D. J. Fox, Gaussian, Inc., Wallingford CT, 2009.
 
 ******************************************
 Gaussian 09:  EM64L-G09RevA.02 11-Jun-2009
                18-Sep-2023 
 ******************************************
 %mem=4Gb
 %chk=/home/nathalia.rosa/DPP-SUB/DPP-SUB-7/DPP-SUB-7-TD-DFT.chk
 ---------------------------------------------------------
 # td=(nstates=10) cam-b3lyp/6-31+g(d,p) geom=connectivity
 ---------------------------------------------------------
 1/38=1,57=2/1;
 2/12=2,17=6,18=5,40=1/2;
 3/5=1,6=6,7=111,11=2,16=1,25=1,30=1,74=-40/1,2,8,3;
 4//1;
 5/5=2,38=5/2;
 8/6=1,10=2,108=10/1;
 9/41=10,42=1/14;
 6/7=2,8=2,9=2,10=2/1;
 99/5=1,9=1/99;
 -------
 Energy:
 -------
 Symbolic Z-matrix:
 Charge =  0 Multiplicity = 1
 N                     1.62671   1.35843  -0.69949 
 C                     0.27913   1.80035  -0.69247 
 C                     1.74551  -0.01481  -0.6703 
 C                     0.47449  -0.54715  -0.65438 
 C                    -0.4745    0.54716  -0.65437 
 C                    -1.74552   0.01482  -0.67032 
 C                    -0.27913  -1.80034  -0.6925 
 N                    -1.62672  -1.35842  -0.69954 
 O                    -0.04349   2.98382  -0.72909 
 O                     0.04348  -2.98381  -0.72914 
 H                    -2.43526  -1.97467  -0.69755 
 H                     2.43525   1.97468  -0.69752 
 C                    -4.25036  -0.13476  -0.1428 
 C                    -5.27663   0.54154   0.66369 
 C                    -5.18107   1.85757   0.97675 
 H                    -5.93787   2.34069   1.58669 
 C                    -4.03998   2.63632   0.52037 
 H                    -3.98112   3.67682   0.82598 
 C                    -3.06267   2.11648  -0.24458 
 H                    -2.21155   2.71591  -0.55231 
 C                    -3.10474   0.68535  -0.73851 
 N                    -4.38733  -1.39439  -0.36595 
 C                     5.27663  -0.54154   0.66369 
 C                     4.25036   0.13475  -0.1428 
 C                     3.10473  -0.68535  -0.7385 
 C                     3.06266  -2.11648  -0.24455 
 H                     2.21154  -2.7159   -0.55229 
 C                     4.03997  -2.63631   0.52039 
 H                     3.9811   -3.67682   0.82601 
 C                     5.18107  -1.85757   0.97676 
 H                     5.93787  -2.34069   1.5867 
 N                     4.38734   1.39439  -0.36596 
 C                     5.56785   1.97024   0.23011 
 H                     5.28953   2.75387   0.94179 
 H                     6.20606   2.41033  -0.5425 
 C                    -5.56782  -1.97025   0.23013 
 H                    -6.20604  -2.41036  -0.54246 
 H                    -5.28949  -2.75386   0.94182 
 S                     6.51323   0.62679   1.12873 
 S                    -6.51322  -0.6268    1.12875 
 H                     3.34403  -0.73869  -1.81824 
 H                    -3.34404   0.73868  -1.81825 
 
                          Input orientation:                          
 ---------------------------------------------------------------------
 Center     Atomic      Atomic             Coordinates (Angstroms)
 Number     Number       Type             X           Y           Z
 ---------------------------------------------------------------------
      1          7           0        1.626712    1.358431   -0.699493
      2          6           0        0.279126    1.800347   -0.692468
      3          6           0        1.745512   -0.014814   -0.670304
      4          6           0        0.474490   -0.547147   -0.654376
      5          6           0       -0.474496    0.547155   -0.654368
      6          6           0       -1.745517    0.014822   -0.670321
      7          6           0       -0.279133   -1.800339   -0.692504
      8          7           0       -1.626718   -1.358424   -0.699541
      9          8           0       -0.043487    2.983817   -0.729089
     10          8           0        0.043482   -2.983808   -0.729135
     11          1           0       -2.435260   -1.974665   -0.697547
     12          1           0        2.435248    1.974678   -0.697515
     13          6           0       -4.250359   -0.134757   -0.142798
     14          6           0       -5.276631    0.541537    0.663689
     15          6           0       -5.181074    1.857567    0.976749
     16          1           0       -5.937873    2.340688    1.586690
     17          6           0       -4.039981    2.636318    0.520368
     18          1           0       -3.981121    3.676823    0.825983
     19          6           0       -3.062669    2.116484   -0.244575
     20          1           0       -2.211552    2.715907   -0.552310
     21          6           0       -3.104741    0.685354   -0.738507
     22          7           0       -4.387326   -1.394392   -0.365951
     23          6           0        5.276632   -0.541541    0.663689
     24          6           0        4.250362    0.134754   -0.142798
     25          6           0        3.104734   -0.685353   -0.738495
     26          6           0        3.062657   -2.116480   -0.244554
     27          1           0        2.211539   -2.715902   -0.552287
     28          6           0        4.039968   -2.636314    0.520389
     29          1           0        3.981103   -3.676817    0.826011
     30          6           0        5.181068   -1.857568    0.976760
     31          1           0        5.937869   -2.340689    1.586699
     32          7           0        4.387338    1.394386   -0.365963
     33          6           0        5.567845    1.970240    0.230108
     34          1           0        5.289526    2.753866    0.941788
     35          1           0        6.206061    2.410332   -0.542500
     36          6           0       -5.567824   -1.970250    0.230134
     37          1           0       -6.206040   -2.410360   -0.542464
     38          1           0       -5.289492   -2.753864    0.941822
     39         16           0        6.513235    0.626794    1.128733
     40         16           0       -6.513224   -0.626803    1.128745
     41          1           0        3.344028   -0.738687   -1.818235
     42          1           0       -3.344044    0.738678   -1.818246
 ---------------------------------------------------------------------
                    Distance matrix (angstroms):
                    1          2          3          4          5
     1  N    0.000000
     2  C    1.418213   0.000000
     3  C    1.378683   2.333578   0.000000
     4  C    2.227303   2.355917   1.378089   0.000000
     5  C    2.252838   1.462836   2.290087   1.448472   0.000000
     6  C    3.630160   2.699587   3.491155   2.290086   1.378088
     7  C    3.689190   3.643706   2.699589   1.462837   2.355918
     8  N    4.238645   3.689190   3.630162   2.252839   2.227305
     9  O    2.330734   1.227201   3.492243   3.569536   2.475616
    10  O    4.621962   4.790095   3.422761   2.475616   3.569537
    11  H    5.254441   4.649584   4.617425   3.241345   3.194689
    12  H    1.016609   2.163164   2.105838   3.194688   3.241341
    13  C    6.089293   4.956107   6.020226   4.770322   3.870898
    14  C    7.083906   5.855783   7.169348   5.999827   4.979740
    15  C    7.028860   5.709934   7.361806   6.358351   5.150689
    16  H    7.963316   6.643614   8.347264   7.381082   6.171514
    17  C    5.935694   4.563387   6.474421   5.647559   4.296195
    18  H    6.256981   4.896587   6.975771   6.315525   4.927746
    19  C    4.771990   3.386465   5.276579   4.446837   3.054401
    20  H    4.073902   2.657324   4.809274   4.227619   2.780515
    21  C    4.779247   3.563129   4.901004   3.786427   2.635217
    22  N    6.622533   5.664693   6.293454   4.943508   4.377560
    23  C    4.334752   5.683192   3.811271   4.979748   5.999834
    24  C    2.948022   4.341319   2.564158   3.870906   4.770331
    25  C    2.522523   3.763626   1.517154   2.635215   3.786428
    26  C    3.787336   4.825993   2.516572   3.054402   4.446836
    27  H    4.118723   4.914303   2.743535   2.780514   4.227617
    28  C    4.823889   5.941289   3.681649   4.296199   5.647558
    29  H    5.764030   6.783048   4.543907   4.927749   6.315522
    30  C    5.077984   6.340008   4.232211   5.150697   6.358355
    31  H    6.123417   7.373205   5.299020   6.171525   7.381087
    32  N    2.780933   4.141113   3.009603   4.377569   4.943522
    33  C    4.095241   5.371272   4.400160   5.749940   6.270355
    34  H    4.249382   5.355754   4.777496   6.052190   6.375048
    35  H    4.701232   5.960128   5.078796   6.450589   6.936410
    36  C    7.981583   7.018221   7.623608   6.270338   5.749927
    37  H    8.693702   7.733688   8.305550   6.936394   6.450582
    38  H    8.212111   7.377076   7.719626   6.375024   6.052168
    39  S    5.268378   6.599857   5.136086   6.405002   7.212085
    40  S    8.575673   7.439348   8.474540   7.212074   6.404991
    41  H    2.932347   4.136142   2.096900   3.102500   4.193936
    42  H    5.132652   3.939781   5.271537   4.193941   3.102515
                    6          7          8          9         10
     6  C    0.000000
     7  C    2.333577   0.000000
     8  N    1.378685   1.418211   0.000000
     9  O    3.422761   4.790096   4.621964   0.000000
    10  O    3.492243   1.227201   2.330733   5.968259   0.000000
    11  H    2.105836   2.163169   1.016611   5.505281   2.676477
    12  H    4.617420   4.649585   5.254440   2.676469   5.505282
    13  C    2.564154   4.341310   2.948019   5.269441   5.186324
    14  C    3.811270   5.683188   4.334756   5.940569   6.532352
    15  C    4.232210   6.340008   5.077991   5.529297   7.324270
    16  H    5.299019   7.373206   6.123425   6.365551   8.336061
    17  C    3.681650   5.941293   4.823897   4.201650   7.058452
    18  H    4.543908   6.783054   5.764039   4.289926   7.935983
    19  C    2.516572   4.825994   3.787339   3.178440   5.991323
    20  H    2.743533   4.914303   4.118723   2.191696   6.132145
    21  C    1.517153   3.763621   2.522518   3.828093   4.834682
    22  N    3.009598   4.141096   2.780923   6.178149   4.721250
    23  C    7.169358   5.855797   7.083921   6.532354   5.940580
    24  C    6.020235   4.956116   6.089303   5.186332   5.269446
    25  C    4.901003   3.563126   4.779245   4.834686   3.828087
    26  C    5.276577   3.386468   4.771991   5.991322   3.178442
    27  H    4.809270   2.657323   4.073898   6.132145   2.191693
    28  C    6.474423   4.563398   5.935702   7.058447   4.201662
    29  H    6.975771   4.896598   6.256989   7.935975   4.289942
    30  C    7.361814   5.709949   7.028875   7.324268   5.529311
    31  H    8.347275   6.643633   7.963336   8.336058   6.365570
    32  N    6.293468   5.664702   6.622545   4.721267   6.178152
    33  C    7.623627   7.018236   7.981603   5.782253   7.482067
    34  H    7.719656   7.377104   8.212145   5.593365   7.951972
    35  H    8.305564   7.733692   8.693711   6.278579   8.192006
    36  C    4.400155   5.371255   4.095234   7.482058   5.782236
    37  H    5.078791   5.960106   4.701216   8.192010   6.278552
    38  H    4.777487   5.355738   4.249381   7.951949   5.593352
    39  S    8.474555   7.439364   8.575693   7.210941   7.638444
    40  S    5.136083   6.599850   5.268381   7.638431   7.210935
    41  H    5.271523   3.939755   5.132628   5.149615   4.137670
    42  H    2.096900   4.136131   2.932328   4.137703   5.149602
                   11         12         13         14         15
    11  H    0.000000
    12  H    6.270499   0.000000
    13  C    2.643405   7.032408   0.000000
    14  C    4.032075   7.961146   1.470044   0.000000
    15  C    5.002876   7.799054   2.467584   1.356124   0.000000
    16  H    6.009019   8.686812   3.459286   2.127467   1.085439
    17  C    5.031860   6.621903   2.857080   2.436791   1.454933
    18  H    6.053936   6.810884   3.941975   3.396278   2.184562
    19  C    4.163691   5.518365   2.547362   2.864791   2.458925
    20  H    4.698149   4.707787   3.528558   3.949841   3.448598
    21  C    2.743280   5.688191   1.529671   2.589197   2.937234
    22  N    2.063307   7.616304   1.286560   2.366187   3.606677
    23  C    7.961161   4.032084   9.569715  10.608695  10.733934
    24  C    7.032420   2.643420   8.504992   9.569717   9.652640
    25  C    5.688193   2.743293   7.399689   8.585957   8.835334
    26  C    5.518370   4.163699   7.577452   8.799641   9.232753
    27  H    4.707789   4.698157   6.970374   8.256040   8.826398
    28  C    6.621912   5.031865   8.684879   9.844709  10.267952
    29  H    6.810893   6.053940   9.013420  10.174797  10.705028
    30  C    7.799068   5.002883   9.652632  10.733927  11.008007
    31  H    8.686832   6.009025  10.566801  11.615687  11.900768
    32  N    7.616318   2.063328   8.774844   9.756015   9.673258
    33  C    8.970647   3.267058  10.048244  10.946773  10.775408
    34  H    9.204279   3.382507  10.026459  10.798862  10.508950
    35  H    9.691474   3.799060  10.769121  11.696132  11.501326
    36  C    3.267043   8.970627   2.289940   2.565509   3.919081
    37  H    3.799034   9.691463   3.027010   3.321491   4.644757
    38  H    3.382502   9.204246   3.019258   3.307142   4.612838
    39  S    9.496233   4.667114  10.865160  11.799342  11.759879
    40  S    4.667105   9.496214   2.641872   1.763649   2.823087
    41  H    6.015293   3.073149   7.800419   9.061715   9.339691
    42  H    3.073123   6.015310   2.095572   3.151787   3.526838
                   16         17         18         19         20
    16  H    0.000000
    17  C    2.196915   0.000000
    18  H    2.488536   1.086055   0.000000
    19  C    3.416226   1.345550   2.103404   0.000000
    20  H    4.312955   2.121350   2.440169   1.085545   0.000000
    21  C    4.021605   2.503138   3.487773   1.514553   2.226118
    22  N    4.490860   4.141598   5.225221   3.754424   4.654383
    23  C   11.615692   9.844725  10.174818   8.799658   8.256060
    24  C   10.566807   8.684895   9.013440   7.577469   6.970393
    25  C    9.814894   7.979047   8.466730   6.791988   6.313963
    26  C   10.209277   8.580307   9.182767   7.445643   7.159885
    27  H    9.826354   8.299298   9.006420   7.159882   7.004876
    28  C   11.201110   9.648120  10.212098   8.580309   8.299304
    29  H   11.626482  10.212095  10.838498   9.182767   9.006424
    30  C   11.900765  10.267962  10.705042   9.232765   8.826413
    31  H   12.765130  11.201123  11.626500  10.209292   9.826372
    32  N   10.550750   8.564326   8.755647   7.485904   6.732495
    33  C   11.591337   9.635260   9.718552   8.644795   7.854121
    34  H   11.253493   9.339760   9.317197   8.460075   7.648525
    35  H   12.329373  10.303501  10.356419   9.278171   8.423163
    36  C    4.534464   4.861996   5.895939   4.816902   5.816945
    37  H    5.213220   5.593781   6.623950   5.519224   6.498819
    38  H    5.175975   5.549141   6.563459   5.485122   6.451708
    39  S   12.576854  10.760049  10.932787   9.787905   9.127552
    40  S    3.057245   4.139446   5.002440   4.617138   5.701231
    41  H   10.355180   8.448865   8.952454   7.188475   6.663427
    42  H    4.570336   3.091032   4.003812   2.110441   2.606639
                   21         22         23         24         25
    21  C    0.000000
    22  N    2.471673   0.000000
    23  C    8.585968   9.756003   0.000000
    24  C    7.399701   8.774836   1.470043   0.000000
    25  C    6.358964   7.534752   2.589197   1.529671   0.000000
    26  C    6.791985   7.485880   2.864790   2.547362   1.514554
    27  H    6.313957   6.732468   3.949840   3.528558   2.226118
    28  C    7.979045   8.564301   2.436790   2.857079   2.503138
    29  H    8.466725   8.755618   3.396277   3.941975   3.487773
    30  C    8.835339   9.673240   1.356124   2.467584   2.937235
    31  H    9.814903  10.550733   2.127467   3.459286   4.021606
    32  N    7.534770   9.207172   2.366187   1.286560   2.471673
    33  C    8.820595  10.525277   2.565510   2.289941   3.749304
    34  H    8.807148  10.609415   3.307146   3.019261   4.407368
    35  H    9.471272  11.257306   3.321488   3.027008   4.386332
    36  C    3.749303   1.442396  10.946753  10.048229   8.820571
    37  H    4.386335   2.090710  11.696112  10.769108   9.471251
    38  H    4.407365   2.091014  10.798829  10.026432   8.807113
    39  S    9.797728  11.186666   1.763650   2.641872   4.101969
    40  S    4.101968   2.709751  11.799333  10.865154   9.797710
    41  H    6.691810   7.893853   3.151789   2.095574   1.107224
    42  H    1.107224   2.783449   9.061734   7.800439   6.691821
                   26         27         28         29         30
    26  C    0.000000
    27  H    1.085545   0.000000
    28  C    1.345549   2.121349   0.000000
    29  H    2.103403   2.440168   1.086055   0.000000
    30  C    2.458924   3.448597   1.454933   2.184561   0.000000
    31  H    3.416226   4.312955   2.196916   2.488537   1.085440
    32  N    3.754424   4.654383   4.141597   5.225220   3.606677
    33  C    4.816903   5.816946   4.861997   5.895940   3.919081
    34  H    5.485127   6.451715   5.549145   6.563464   4.612842
    35  H    5.519220   6.498813   5.593776   6.623945   4.644753
    36  C    8.644762   7.854086   9.635225   9.718511  10.775381
    37  H    9.278139   8.423128  10.303465  10.356376  11.501298
    38  H    8.460032   7.648481   9.339713   9.317145  10.508910
    39  S    4.617137   5.701231   4.139445   5.002439   2.823087
    40  S    9.787879   9.127524  10.760023  10.932755  11.759862
    41  H    2.110440   2.606633   3.091033   4.003812   3.526841
    42  H    7.188480   6.663428   8.448871   8.952456   9.339705
                   31         32         33         34         35
    31  H    0.000000
    32  N    4.490860   0.000000
    33  C    4.534464   1.442396   0.000000
    34  H    5.175978   2.091015   1.094541   0.000000
    35  H    5.213216   2.090709   1.094497   1.777966   0.000000
    36  C   11.591310  10.525272  11.812307  11.861946  12.586136
    37  H   12.329344  11.257304  12.586139  12.689376  13.315379
    38  H   11.253453  10.609398  11.861933  11.926890  12.689361
    39  S    3.057243   2.709751   1.872468   2.461066   2.463409
    40  S   12.576838  11.186671  12.389690  12.278794  13.183226
    41  H    4.570339   2.783449   4.059477   4.858047   4.442415
    42  H   10.355195   7.893880   9.226823   9.285327   9.778878
                   36         37         38         39         40
    36  C    0.000000
    37  H    1.094497   0.000000
    38  H    1.094541   1.777965   0.000000
    39  S   12.389677  13.183215  12.278768   0.000000
    40  S    1.872467   2.463408   2.461067  13.086640   0.000000
    41  H    9.226791   9.778849   9.285285   4.537955  10.288957
    42  H    4.059476   4.442418   4.858044  10.288982   4.537951
                   41         42
    41  H    0.000000
    42  H    6.849300   0.000000
 Stoichiometry    C20H14N4O2S2
 Framework group  C1[X(C20H14N4O2S2)]
 Deg. of freedom   120
 Full point group                 C1      NOp   1
 Largest Abelian subgroup         C1      NOp   1
 Largest concise Abelian subgroup C1      NOp   1
                         Standard orientation:                         
 ---------------------------------------------------------------------
 Center     Atomic      Atomic             Coordinates (Angstroms)
 Number     Number       Type             X           Y           Z
 ---------------------------------------------------------------------
      1          7           0        1.626712    1.358431   -0.699493
      2          6           0        0.279126    1.800347   -0.692468
      3          6           0        1.745512   -0.014814   -0.670304
      4          6           0        0.474490   -0.547147   -0.654376
      5          6           0       -0.474496    0.547155   -0.654368
      6          6           0       -1.745517    0.014822   -0.670321
      7          6           0       -0.279133   -1.800339   -0.692504
      8          7           0       -1.626718   -1.358424   -0.699541
      9          8           0       -0.043487    2.983817   -0.729089
     10          8           0        0.043482   -2.983808   -0.729135
     11          1           0       -2.435260   -1.974665   -0.697547
     12          1           0        2.435248    1.974678   -0.697515
     13          6           0       -4.250359   -0.134757   -0.142798
     14          6           0       -5.276631    0.541537    0.663689
     15          6           0       -5.181074    1.857567    0.976749
     16          1           0       -5.937873    2.340688    1.586690
     17          6           0       -4.039981    2.636318    0.520368
     18          1           0       -3.981121    3.676823    0.825983
     19          6           0       -3.062669    2.116484   -0.244575
     20          1           0       -2.211552    2.715907   -0.552310
     21          6           0       -3.104741    0.685354   -0.738507
     22          7           0       -4.387326   -1.394392   -0.365951
     23          6           0        5.276632   -0.541541    0.663689
     24          6           0        4.250362    0.134754   -0.142798
     25          6           0        3.104734   -0.685353   -0.738495
     26          6           0        3.062657   -2.116480   -0.244554
     27          1           0        2.211539   -2.715902   -0.552287
     28          6           0        4.039968   -2.636314    0.520389
     29          1           0        3.981103   -3.676817    0.826011
     30          6           0        5.181068   -1.857568    0.976760
     31          1           0        5.937869   -2.340689    1.586699
     32          7           0        4.387338    1.394386   -0.365963
     33          6           0        5.567845    1.970240    0.230108
     34          1           0        5.289526    2.753866    0.941788
     35          1           0        6.206061    2.410332   -0.542500
     36          6           0       -5.567824   -1.970250    0.230134
     37          1           0       -6.206040   -2.410360   -0.542464
     38          1           0       -5.289492   -2.753864    0.941822
     39         16           0        6.513235    0.626794    1.128733
     40         16           0       -6.513224   -0.626803    1.128745
     41          1           0        3.344028   -0.738687   -1.818235
     42          1           0       -3.344044    0.738678   -1.818246
 ---------------------------------------------------------------------
 Rotational constants (GHZ):      0.3945082      0.0697288      0.0625072
 Standard basis: 6-31+G(d,p) (6D, 7F)
 There are   610 symmetry adapted basis functions of A   symmetry.
 Integral buffers will be    131072 words long.
 Raffenetti 2 integral format.
 Two-electron integral symmetry is turned on.
   610 basis functions,  1042 primitive gaussians,   610 cartesian basis functions
   105 alpha electrons      105 beta electrons
       nuclear repulsion energy      2701.0474302595 Hartrees.
 NAtoms=   42 NActive=   42 NUniq=   42 SFac= 7.50D-01 NAtFMM=   80 NAOKFM=F Big=F
 One-electron integrals computed using PRISM.
 NBasis=   610 RedAO= T  NBF=   610
 NBsUse=   606 1.00D-06 NBFU=   606
 Harris functional with IExCor=20419 diagonalized for initial guess.
 ExpMin= 4.05D-02 ExpMax= 2.19D+04 ExpMxC= 3.30D+03 IAcc=2 IRadAn=         0 AccDes= 0.00D+00
 HarFok:  IExCor=20419 AccDes= 0.00D+00 IRadAn=         0 IDoV= 1
 ScaDFX=  1.000000  1.000000  1.000000  1.000000
 FoFCou: FMM=F IPFlag=           0 FMFlag=      100000 FMFlg1=           0
         NFxFlg=           0 DoJE=T BraDBF=F KetDBF=T FulRan=T
         Omega=  0.000000  0.000000  1.000000  0.000000  0.000000 ICntrl=     500 IOpCl=  0
         NMat0=    1 NMatS0=    1 NMatT0=    0 NMatD0=    1 NMtDS0=    0 NMtDT0=    0
         I1Cent=           4 NGrid=           0.
 Petite list used in FoFCou.
 Initial guess orbital symmetries:
       Occupied  (A) (A) (A) (A) (A) (A) (A) (A) (A) (A) (A) (A)
                 (A) (A) (A) (A) (A) (A) (A) (A) (A) (A) (A) (A)
                 (A) (A) (A) (A) (A) (A) (A) (A) (A) (A) (A) (A)
                 (A) (A) (A) (A) (A) (A) (A) (A) (A) (A) (A) (A)
                 (A) (A) (A) (A) (A) (A) (A) (A) (A) (A) (A) (A)
                 (A) (A) (A) (A) (A) (A) (A) (A) (A) (A) (A) (A)
                 (A) (A) (A) (A) (A) (A) (A) (A) (A) (A) (A) (A)
                 (A) (A) (A) (A) (A) (A) (A) (A) (A) (A) (A) (A)
                 (A) (A) (A) (A) (A) (A) (A) (A) (A)
       Virtual   (A) (A) (A) (A) (A) (A) (A) (A) (A) (A) (A) (A)
                 (A) (A) (A) (A) (A) (A) (A) (A) (A) (A) (A) (A)
                 (A) (A) (A) (A) (A) (A) (A) (A) (A) (A) (A) (A)
                 (A) (A) (A) (A) (A) (A) (A) (A) (A) (A) (A) (A)
                 (A) (A) (A) (A) (A) (A) (A) (A) (A) (A) (A) (A)
                 (A) (A) (A) (A) (A) (A) (A) (A) (A) (A) (A) (A)
                 (A) (A) (A) (A) (A) (A) (A) (A) (A) (A) (A) (A)
                 (A) (A) (A) (A) (A) (A) (A) (A) (A) (A) (A) (A)
                 (A) (A) (A) (A) (A) (A) (A) (A) (A) (A) (A) (A)
                 (A) (A) (A) (A) (A) (A) (A) (A) (A) (A) (A) (A)
                 (A) (A) (A) (A) (A) (A) (A) (A) (A) (A) (A) (A)
                 (A) (A) (A) (A) (A) (A) (A) (A) (A) (A) (A) (A)
                 (A) (A) (A) (A) (A) (A) (A) (A) (A) (A) (A) (A)
                 (A) (A) (A) (A) (A) (A) (A) (A) (A) (A) (A) (A)
                 (A) (A) (A) (A) (A) (A) (A) (A) (A) (A) (A) (A)
                 (A) (A) (A) (A) (A) (A) (A) (A) (A) (A) (A) (A)
                 (A) (A) (A) (A) (A) (A) (A) (A) (A) (A) (A) (A)
                 (A) (A) (A) (A) (A) (A) (A) (A) (A) (A) (A) (A)
                 (A) (A) (A) (A) (A) (A) (A) (A) (A) (A) (A) (A)
                 (A) (A) (A) (A) (A) (A) (A) (A) (A) (A) (A) (A)
                 (A) (A) (A) (A) (A) (A) (A) (A) (A) (A) (A) (A)
                 (A) (A) (A) (A) (A) (A) (A) (A) (A) (A) (A) (A)
                 (A) (A) (A) (A) (A) (A) (A) (A) (A) (A) (A) (A)
                 (A) (A) (A) (A) (A) (A) (A) (A) (A) (A) (A) (A)
                 (A) (A) (A) (A) (A) (A) (A) (A) (A) (A) (A) (A)
                 (A) (A) (A) (A) (A) (A) (A) (A) (A) (A) (A) (A)
                 (A) (A) (A) (A) (A) (A) (A) (A) (A) (A) (A) (A)
                 (A) (A) (A) (A) (A) (A) (A) (A) (A) (A) (A) (A)
                 (A) (A) (A) (A) (A) (A) (A) (A) (A) (A) (A) (A)
                 (A) (A) (A) (A) (A) (A) (A) (A) (A) (A) (A) (A)
                 (A) (A) (A) (A) (A) (A) (A) (A) (A) (A) (A) (A)
                 (A) (A) (A) (A) (A) (A) (A) (A) (A) (A) (A) (A)
                 (A) (A) (A) (A) (A) (A) (A) (A) (A) (A) (A) (A)
                 (A) (A) (A) (A) (A) (A) (A) (A) (A) (A) (A) (A)
                 (A) (A) (A) (A) (A) (A) (A) (A) (A) (A) (A) (A)
                 (A) (A) (A) (A) (A) (A) (A) (A) (A) (A) (A) (A)
                 (A) (A) (A) (A) (A) (A) (A) (A) (A) (A) (A) (A)
                 (A) (A) (A) (A) (A) (A) (A) (A) (A) (A) (A) (A)
                 (A) (A) (A) (A) (A) (A) (A) (A) (A) (A) (A) (A)
                 (A) (A) (A) (A) (A) (A) (A) (A) (A) (A) (A) (A)
                 (A) (A) (A) (A) (A) (A) (A) (A) (A) (A) (A) (A)
                 (A) (A) (A) (A) (A) (A) (A) (A) (A)
 The electronic state of the initial guess is 1-A.
 Requested convergence on RMS density matrix=1.00D-08 within 128 cycles.
 Requested convergence on MAX density matrix=1.00D-06.
 Requested convergence on             energy=1.00D-06.
 No special actions if energy rises.
 FoFJK:  IHMeth= 1 ICntrl=     0 DoSepK=T KAlg= 1 I1Cent= 0 FoldK=F
 FoFJK:  IHMeth= 1 ICntrl=     0 DoSepK=T KAlg= 1 I1Cent= 0 FoldK=F
 FoFJK:  IHMeth= 1 ICntrl=     0 DoSepK=T KAlg= 1 I1Cent= 0 FoldK=F
 FoFJK:  IHMeth= 1 ICntrl=     0 DoSepK=T KAlg= 1 I1Cent= 0 FoldK=F
 FoFJK:  IHMeth= 1 ICntrl=     0 DoSepK=T KAlg= 1 I1Cent= 0 FoldK=F
 FoFJK:  IHMeth= 1 ICntrl=     0 DoSepK=T KAlg= 1 I1Cent= 0 FoldK=F
 FoFJK:  IHMeth= 1 ICntrl=     0 DoSepK=T KAlg= 1 I1Cent= 0 FoldK=F
 FoFJK:  IHMeth= 1 ICntrl=     0 DoSepK=T KAlg= 1 I1Cent= 0 FoldK=F
 FoFJK:  IHMeth= 1 ICntrl=     0 DoSepK=T KAlg= 1 I1Cent= 0 FoldK=F
 FoFJK:  IHMeth= 1 ICntrl=     0 DoSepK=T KAlg= 1 I1Cent= 0 FoldK=F
 FoFJK:  IHMeth= 1 ICntrl=     0 DoSepK=T KAlg= 1 I1Cent= 0 FoldK=F
 FoFJK:  IHMeth= 1 ICntrl=     0 DoSepK=T KAlg= 1 I1Cent= 0 FoldK=F
 FoFJK:  IHMeth= 1 ICntrl=     0 DoSepK=T KAlg= 1 I1Cent= 0 FoldK=F
 FoFJK:  IHMeth= 1 ICntrl=     0 DoSepK=T KAlg= 1 I1Cent= 0 FoldK=F
 FoFJK:  IHMeth= 1 ICntrl=     0 DoSepK=T KAlg= 1 I1Cent= 0 FoldK=F
 FoFJK:  IHMeth= 1 ICntrl=     0 DoSepK=T KAlg= 1 I1Cent= 0 FoldK=F
 FoFJK:  IHMeth= 1 ICntrl=     0 DoSepK=T KAlg= 1 I1Cent= 0 FoldK=F
 FoFJK:  IHMeth= 1 ICntrl=     0 DoSepK=T KAlg= 1 I1Cent= 0 FoldK=F
 SCF Done:  E(RCAM-B3LYP) =  -1935.80686616     A.U. after   18 cycles
             Convg  =    0.5439D-08             -V/T =  2.0069
 ExpMin= 4.05D-02 ExpMax= 2.19D+04 ExpMxC= 3.30D+03 IAcc=3 IRadAn=         5 AccDes= 0.00D+00
 HarFok:  IExCor=  205 AccDes= 0.00D+00 IRadAn=         5 IDoV=-2
 ScaDFX=  1.000000  1.000000  1.000000  1.000000
 Range of M.O.s used for correlation:    37   606
 NBasis=   610 NAE=   105 NBE=   105 NFC=    36 NFV=     0
 NROrb=    570 NOA=    69 NOB=    69 NVA=   501 NVB=   501

 **** Warning!!: The largest alpha MO coefficient is  0.18311007D+03

 Would need an additional 51795500000 words for in-memory AO integral storage.
 Orbital symmetries:
       Occupied  (A) (A) (A) (A) (A) (A) (A) (A) (A) (A) (A) (A)
                 (A) (A) (A) (A) (A) (A) (A) (A) (A) (A) (A) (A)
                 (A) (A) (A) (A) (A) (A) (A) (A) (A) (A) (A) (A)
                 (A) (A) (A) (A) (A) (A) (A) (A) (A) (A) (A) (A)
                 (A) (A) (A) (A) (A) (A) (A) (A) (A) (A) (A) (A)
                 (A) (A) (A) (A) (A) (A) (A) (A) (A) (A) (A) (A)
                 (A) (A) (A) (A) (A) (A) (A) (A) (A) (A) (A) (A)
                 (A) (A) (A) (A) (A) (A) (A) (A) (A) (A) (A) (A)
                 (A) (A) (A) (A) (A) (A) (A) (A) (A)
       Virtual   (A) (A) (A) (A) (A) (A) (A) (A) (A) (A) (A) (A)
                 (A) (A) (A) (A) (A) (A) (A) (A) (A) (A) (A) (A)
                 (A) (A) (A) (A) (A) (A) (A) (A) (A) (A) (A) (A)
                 (A) (A) (A) (A) (A) (A) (A) (A) (A) (A) (A) (A)
                 (A) (A) (A) (A) (A) (A) (A) (A) (A) (A) (A) (A)
                 (A) (A) (A) (A) (A) (A) (A) (A) (A) (A) (A) (A)
                 (A) (A) (A) (A) (A) (A) (A) (A) (A) (A) (A) (A)
                 (A) (A) (A) (A) (A) (A) (A) (A) (A) (A) (A) (A)
                 (A) (A) (A) (A) (A) (A) (A) (A) (A) (A) (A) (A)
                 (A) (A) (A) (A) (A) (A) (A) (A) (A) (A) (A) (A)
                 (A) (A) (A) (A) (A) (A) (A) (A) (A) (A) (A) (A)
                 (A) (A) (A) (A) (A) (A) (A) (A) (A) (A) (A) (A)
                 (A) (A) (A) (A) (A) (A) (A) (A) (A) (A) (A) (A)
                 (A) (A) (A) (A) (A) (A) (A) (A) (A) (A) (A) (A)
                 (A) (A) (A) (A) (A) (A) (A) (A) (A) (A) (A) (A)
                 (A) (A) (A) (A) (A) (A) (A) (A) (A) (A) (A) (A)
                 (A) (A) (A) (A) (A) (A) (A) (A) (A) (A) (A) (A)
                 (A) (A) (A) (A) (A) (A) (A) (A) (A) (A) (A) (A)
                 (A) (A) (A) (A) (A) (A) (A) (A) (A) (A) (A) (A)
                 (A) (A) (A) (A) (A) (A) (A) (A) (A) (A) (A) (A)
                 (A) (A) (A) (A) (A) (A) (A) (A) (A) (A) (A) (A)
                 (A) (A) (A) (A) (A) (A) (A) (A) (A) (A) (A) (A)
                 (A) (A) (A) (A) (A) (A) (A) (A) (A) (A) (A) (A)
                 (A) (A) (A) (A) (A) (A) (A) (A) (A) (A) (A) (A)
                 (A) (A) (A) (A) (A) (A) (A) (A) (A) (A) (A) (A)
                 (A) (A) (A) (A) (A) (A) (A) (A) (A) (A) (A) (A)
                 (A) (A) (A) (A) (A) (A) (A) (A) (A) (A) (A) (A)
                 (A) (A) (A) (A) (A) (A) (A) (A) (A) (A) (A) (A)
                 (A) (A) (A) (A) (A) (A) (A) (A) (A) (A) (A) (A)
                 (A) (A) (A) (A) (A) (A) (A) (A) (A) (A) (A) (A)
                 (A) (A) (A) (A) (A) (A) (A) (A) (A) (A) (A) (A)
                 (A) (A) (A) (A) (A) (A) (A) (A) (A) (A) (A) (A)
                 (A) (A) (A) (A) (A) (A) (A) (A) (A) (A) (A) (A)
                 (A) (A) (A) (A) (A) (A) (A) (A) (A) (A) (A) (A)
                 (A) (A) (A) (A) (A) (A) (A) (A) (A) (A) (A) (A)
                 (A) (A) (A) (A) (A) (A) (A) (A) (A) (A) (A) (A)
                 (A) (A) (A) (A) (A) (A) (A) (A) (A) (A) (A) (A)
                 (A) (A) (A) (A) (A) (A) (A) (A) (A) (A) (A) (A)
                 (A) (A) (A) (A) (A) (A) (A) (A) (A) (A) (A) (A)
                 (A) (A) (A) (A) (A) (A) (A) (A) (A) (A) (A) (A)
                 (A) (A) (A) (A) (A) (A) (A) (A) (A) (A) (A) (A)
                 (A) (A) (A) (A) (A) (A) (A) (A) (A)
    40 initial guesses have been made.
 Convergence on wavefunction:    0.001000000000000
 Iteration     1 Dimension    40 NMult    40
 CISAX will form    40 AO SS matrices at one time.
 FoFJK:  IHMeth= 1 ICntrl=     0 DoSepK=T KAlg= 1 I1Cent= 0 FoldK=F
 FoFJK:  IHMeth= 1 ICntrl=     0 DoSepK=T KAlg= 1 I1Cent= 0 FoldK=F
 New state      1 was old state      2
 New state      2 was old state      3
 New state      3 was old state      5
 New state      5 was old state      8
 New state      6 was old state      9
 New state      7 was old state     10
 New state      8 was old state      1
 No map to state      9
 New state     10 was old state      6
 Iteration     2 Dimension    60 NMult    60
 FoFJK:  IHMeth= 1 ICntrl=     0 DoSepK=T KAlg= 1 I1Cent= 0 FoldK=F
 FoFJK:  IHMeth= 1 ICntrl=     0 DoSepK=T KAlg= 1 I1Cent= 0 FoldK=F
 New state      1 was old state      8
 New state      2 was old state      5
 New state      3 was old state      6
 New state      4 was old state      1
 New state      5 was old state      4
 New state      6 was old state      2
 New state      7 was old state      3
 New state      8 was old state      7
 Iteration     3 Dimension    80 NMult    80
 FoFJK:  IHMeth= 1 ICntrl=     0 DoSepK=T KAlg= 1 I1Cent= 0 FoldK=F
 FoFJK:  IHMeth= 1 ICntrl=     0 DoSepK=T KAlg= 1 I1Cent= 0 FoldK=F
 Iteration     4 Dimension   100 NMult   100
 FoFJK:  IHMeth= 1 ICntrl=     0 DoSepK=T KAlg= 1 I1Cent= 0 FoldK=F
 FoFJK:  IHMeth= 1 ICntrl=     0 DoSepK=T KAlg= 1 I1Cent= 0 FoldK=F
 Iteration     5 Dimension   120 NMult   120
 FoFJK:  IHMeth= 1 ICntrl=     0 DoSepK=T KAlg= 1 I1Cent= 0 FoldK=F
 FoFJK:  IHMeth= 1 ICntrl=     0 DoSepK=T KAlg= 1 I1Cent= 0 FoldK=F
 Iteration     6 Dimension   134 NMult   134
 FoFJK:  IHMeth= 1 ICntrl=     0 DoSepK=T KAlg= 1 I1Cent= 0 FoldK=F
 FoFJK:  IHMeth= 1 ICntrl=     0 DoSepK=T KAlg= 1 I1Cent= 0 FoldK=F
 Iteration     7 Dimension   136 NMult   136
 FoFJK:  IHMeth= 1 ICntrl=     0 DoSepK=T KAlg= 1 I1Cent= 0 FoldK=F
 FoFJK:  IHMeth= 1 ICntrl=     0 DoSepK=T KAlg= 1 I1Cent= 0 FoldK=F
 Iteration     8 Dimension   138 NMult   138
 FoFJK:  IHMeth= 1 ICntrl=     0 DoSepK=T KAlg= 1 I1Cent= 0 FoldK=F
 FoFJK:  IHMeth= 1 ICntrl=     0 DoSepK=T KAlg= 1 I1Cent= 0 FoldK=F
 Iteration     9 Dimension   140 NMult   140
 FoFJK:  IHMeth= 1 ICntrl=     0 DoSepK=T KAlg= 1 I1Cent= 0 FoldK=F
 FoFJK:  IHMeth= 1 ICntrl=     0 DoSepK=T KAlg= 1 I1Cent= 0 FoldK=F
 Iteration    10 Dimension   142 NMult   142
 FoFJK:  IHMeth= 1 ICntrl=     0 DoSepK=T KAlg= 1 I1Cent= 0 FoldK=F
 FoFJK:  IHMeth= 1 ICntrl=     0 DoSepK=T KAlg= 1 I1Cent= 0 FoldK=F
 Iteration    11 Dimension   144 NMult   144
 FoFJK:  IHMeth= 1 ICntrl=     0 DoSepK=T KAlg= 1 I1Cent= 0 FoldK=F
 FoFJK:  IHMeth= 1 ICntrl=     0 DoSepK=T KAlg= 1 I1Cent= 0 FoldK=F
 Iteration    12 Dimension   146 NMult   146
 FoFJK:  IHMeth= 1 ICntrl=     0 DoSepK=T KAlg= 1 I1Cent= 0 FoldK=F
 FoFJK:  IHMeth= 1 ICntrl=     0 DoSepK=T KAlg= 1 I1Cent= 0 FoldK=F
 Convergence on energies, max DE= 9.65D-06.
 ***********************************************************************
 Excited states from <AA,BB:AA,BB> singles matrix:
 ***********************************************************************
 
 Ground to excited state transition electric dipole moments (Au):
       state          X           Y           Z        Dip. S.      Osc.
         1        -0.9240     -0.4531      0.0000      1.0591      0.0883
         2         0.0001      0.0001      0.2372      0.0562      0.0048
         3        -1.8001     -1.8818      0.0000      6.7815      0.5803
         4         0.0000      0.0000      0.0060      0.0000      0.0000
         5         0.0000      0.0000      0.0159      0.0003      0.0000
         6        -0.0235     -0.2717      0.0000      0.0744      0.0072
         7        -0.1080     -0.0554      0.0000      0.0147      0.0014
         8         0.0000      0.0000     -0.0012      0.0000      0.0000
         9         0.0000      0.0000     -0.0189      0.0004      0.0000
        10        -0.0619     -0.0219     -0.0007      0.0043      0.0005
 Ground to excited state transition velocity dipole moments (Au):
       state          X           Y           Z        Dip. S.      Osc.
         1         0.1159      0.0629      0.0000      0.0174      0.0926
         2         0.0000      0.0000     -0.0316      0.0010      0.0052
         3         0.2320      0.2399      0.0000      0.1114      0.5786
         4         0.0000      0.0000     -0.0020      0.0000      0.0000
         5         0.0000      0.0000     -0.0047      0.0000      0.0001
         6         0.0053      0.0347      0.0000      0.0012      0.0057
         7         0.0150      0.0083      0.0000      0.0003      0.0013
         8         0.0000      0.0000      0.0009      0.0000      0.0000
         9         0.0000      0.0000      0.0066      0.0000      0.0002
        10         0.0111      0.0015      0.0001      0.0001      0.0005
 Ground to excited state transition magnetic dipole moments (Au):
       state          X           Y           Z
         1         0.4202     -0.3064      0.0000
         2         0.0000      0.0000     -3.0351
         3        -0.5517     -0.1581     -0.0001
         4         0.0000      0.0000     -0.0927
         5         0.0000      0.0000      0.0252
         6        -0.0084     -0.1052      0.0001
         7        -0.1863      0.0620     -0.0001
         8         0.0000      0.0000     -1.4018
         9         0.0000      0.0000      0.0685
        10         0.3587      0.2266      0.0070
 <0|del|b> * <b|rxdel|0> + <0|del|b> * <b|delr+rdel|0>
 Rotatory Strengths (R) in cgs (10**-40 erg-esu-cm/Gauss)
       state          XX          YY          ZZ    R(velocity)
         1       -23.3235     46.9895    142.6581     55.4414
 Total R(velocity) tensor for State=          1
                 1             2             3 
      1  -0.233235D+02  0.429919D+02  0.606496D-01
      2  -0.254923D+02  0.469895D+02 -0.130004D-01
      3   0.183864D-01 -0.292484D-01  0.142658D+03
 R(velocity) tensor in inp. orien. for State=          1
                 1             2             3 
      1  -0.233235D+02  0.429919D+02  0.606496D-01
      2  -0.254923D+02  0.469895D+02 -0.130004D-01
      3   0.183864D-01 -0.292484D-01  0.142658D+03
         2       428.0569    102.1204      0.0000    176.7257
 Total R(velocity) tensor for State=          2
                 1             2             3 
      1   0.428057D+03 -0.212882D+03 -0.438924D-01
      2  -0.309956D+02  0.102120D+03 -0.419632D-01
      3   0.416908D-02 -0.370923D-02  0.000000D+00
 R(velocity) tensor in inp. orien. for State=          2
                 1             2             3 
      1   0.428057D+03 -0.212882D+03 -0.438924D-01
      2  -0.309956D+02  0.102120D+03 -0.419632D-01
      3   0.416908D-02 -0.370923D-02  0.000000D+00
         3      -274.9775   -343.7061   -295.5128   -304.7321
 Total R(velocity) tensor for State=          3
                 1             2             3 
      1  -0.274977D+03  0.265922D+03 -0.659788D-01
      2   0.355411D+03 -0.343706D+03  0.509495D-01
      3  -0.179983D-01  0.254130D-01 -0.295513D+03
 R(velocity) tensor in inp. orien. for State=          3
                 1             2             3 
      1  -0.274977D+03  0.265922D+03 -0.659788D-01
      2   0.355411D+03 -0.343706D+03  0.509495D-01
      3  -0.179983D-01  0.254130D-01 -0.295513D+03
         4         1.4806     -0.5709      0.0000      0.3032
 Total R(velocity) tensor for State=          4
                 1             2             3 
      1   0.148060D+01 -0.623859D+00 -0.643725D-02
      2  -0.787024D-01 -0.570850D+00 -0.364493D-03
      3  -0.150747D-04  0.166614D-03  0.000000D+00
 R(velocity) tensor in inp. orien. for State=          4
                 1             2             3 
      1   0.148060D+01 -0.623859D+00 -0.643725D-02
      2  -0.787023D-01 -0.570850D+00 -0.364493D-03
      3  -0.150747D-04  0.166614D-03  0.000000D+00
         5        -1.8993      1.3164      0.0000     -0.1943
 Total R(velocity) tensor for State=          5
                 1             2             3 
      1  -0.189930D+01  0.391375D+01 -0.286846D-02
      2   0.219176D+01  0.131644D+01  0.183471D-02
      3   0.351720D-03  0.719593D-03  0.000000D+00
 R(velocity) tensor in inp. orien. for State=          5
                 1             2             3 
      1  -0.189930D+01  0.391375D+01 -0.286846D-02
      2   0.219176D+01  0.131644D+01  0.183471D-02
      3   0.351720D-03  0.719593D-03  0.000000D+00
         6       -14.5971     -0.4063     -3.0154     -6.0063
 Total R(velocity) tensor for State=          6
                 1             2             3 
      1  -0.145971D+02  0.220953D+01 -0.622801D-02
      2   0.268431D+01 -0.406317D+00 -0.191125D-02
      3   0.235285D-02  0.152252D-03 -0.301544D+01
 R(velocity) tensor in inp. orien. for State=          6
                 1             2             3 
      1  -0.145971D+02  0.220953D+01 -0.622801D-02
      2   0.268431D+01 -0.406317D+00 -0.191125D-02
      3   0.235285D-02  0.152252D-03 -0.301544D+01
         7         1.1671     -4.9491     -7.2890     -3.6903
 Total R(velocity) tensor for State=          7
                 1             2             3 
      1   0.116710D+01 -0.212107D+01  0.322563D-02
      2   0.272319D+01 -0.494910D+01  0.837977D-03
      3  -0.240196D-02  0.113876D-02 -0.728903D+01
 R(velocity) tensor in inp. orien. for State=          7
                 1             2             3 
      1   0.116710D+01 -0.212107D+01  0.322563D-02
      2   0.272319D+01 -0.494910D+01  0.837977D-03
      3  -0.240196D-02  0.113876D-02 -0.728903D+01
         8        -3.1401     -2.7523      0.0000     -1.9642
 Total R(velocity) tensor for State=          8
                 1             2             3 
      1  -0.314015D+01  0.523945D+00 -0.277642D-03
      2  -0.172662D+00 -0.275232D+01  0.895778D-02
      3  -0.106095D-03  0.147621D-04  0.000000D+00
 R(velocity) tensor in inp. orien. for State=          8
                 1             2             3 
      1  -0.314015D+01  0.523945D+00 -0.277642D-03
      2  -0.172662D+00 -0.275232D+01  0.895778D-02
      3  -0.106095D-03  0.147621D-04  0.000000D+00
         9         2.9502     -0.8661      0.0000      0.6947
 Total R(velocity) tensor for State=          9
                 1             2             3 
      1   0.295020D+01 -0.237420D+01 -0.274685D-02
      2  -0.707178D+00 -0.866068D+00 -0.100655D-02
      3   0.160761D-03 -0.409132D-04  0.000000D+00
 R(velocity) tensor in inp. orien. for State=          9
                 1             2             3 
      1   0.295020D+01 -0.237420D+01 -0.274685D-02
      2  -0.707178D+00 -0.866068D+00 -0.100655D-02
      3   0.160761D-03 -0.409132D-04  0.000000D+00
        10         0.6252      6.9358     10.5272      6.0294
 Total R(velocity) tensor for State=         10
                 1             2             3 
      1   0.625188D+00 -0.463670D+01 -0.166809D+00
      2  -0.933424D+00  0.693578D+01  0.392377D-02
      3  -0.710760D-01 -0.323428D-01  0.105272D+02
 R(velocity) tensor in inp. orien. for State=         10
                 1             2             3 
      1   0.625188D+00 -0.463670D+01 -0.166809D+00
      2  -0.933424D+00  0.693577D+01  0.392377D-02
      3  -0.710760D-01 -0.323428D-01  0.105272D+02
 1/2[<0|r|b>*<b|rxdel|0> + (<0|rxdel|b>*<b|r|0>)*]
 Rotatory Strengths (R) in cgs (10**-40 erg-esu-cm/Gauss)
       state          XX          YY          ZZ     R(length)     R(au)
         1       274.5461    -98.1708      0.0000     58.7918      0.1247
         2         0.0000      0.0000    509.0410    169.6803      0.3599
         3      -702.3050   -210.3416      0.0000   -304.2155     -0.6453
         4         0.0000      0.0000      0.3944      0.1315      0.0003
         5         0.0000      0.0000     -0.2846     -0.0949     -0.0002
         6        -0.1387    -20.2132      0.0000     -6.7839     -0.0144
         7       -14.2370      2.4323      0.0000     -3.9349     -0.0083
         8         0.0000      0.0000     -1.2234     -0.4078     -0.0009
         9         0.0000      0.0000      0.9171      0.3057      0.0006
        10        15.6913      3.5063      0.0033      6.4003      0.0136
  1/2[<0|del|b>*<b|r|0> + (<0|r|b>*<b|del|0>)*] (Au)
       state          X           Y           Z        Dip. S.   Osc.(frdel)
         1        -0.1071     -0.0285      0.0000      0.1356      0.0904
         2         0.0000      0.0000     -0.0075      0.0075      0.0050
         3        -0.4177     -0.4515      0.0000      0.8692      0.5795
         4         0.0000      0.0000      0.0000      0.0000      0.0000
         5         0.0000      0.0000     -0.0001      0.0001      0.0001
         6        -0.0001     -0.0094      0.0000      0.0096      0.0064
         7        -0.0016     -0.0005      0.0000      0.0021      0.0014
         8         0.0000      0.0000      0.0000      0.0000      0.0000
         9         0.0000      0.0000     -0.0001      0.0001      0.0001
        10        -0.0007      0.0000      0.0000      0.0007      0.0005
 Ground to excited state transition densities written to RWF  633

 Excitation energies and oscillator strengths:
 
 Excited State   1:      Singlet-A      3.4050 eV  364.13 nm  f=0.0883  <S**2>=0.000
     103 ->108        -0.17558
     104 ->107        -0.18384
     105 ->106         0.65569
 This state for optimization and/or second-order correction.
 Copying the excited state density for this state as the 1-particle RhoCI density.
 
 Excited State   2:      Singlet-A      3.4802 eV  356.25 nm  f=0.0048  <S**2>=0.000
     103 ->107         0.49119
     104 ->106        -0.14623
     104 ->108         0.47575
 
 Excited State   3:      Singlet-A      3.4929 eV  354.97 nm  f=0.5803  <S**2>=0.000
     103 ->106        -0.15167
     103 ->108         0.43826
     104 ->107         0.46311
     105 ->106         0.24407
 
 Excited State   4:      Singlet-A      3.9197 eV  316.31 nm  f=0.0000  <S**2>=0.000
     101 ->106         0.20975
     104 ->106         0.52854
     104 ->108         0.11944
     105 ->107         0.36898
 
 Excited State   5:      Singlet-A      3.9381 eV  314.84 nm  f=0.0000  <S**2>=0.000
     101 ->106        -0.13937
     104 ->106        -0.32456
     105 ->107         0.58232
 
 Excited State   6:      Singlet-A      3.9458 eV  314.22 nm  f=0.0072  <S**2>=0.000
     103 ->106         0.20833
     105 ->108         0.66019
 
 Excited State   7:      Singlet-A      3.9795 eV  311.55 nm  f=0.0014  <S**2>=0.000
     103 ->106         0.63343
     103 ->108         0.16749
     105 ->108        -0.19610
 
 Excited State   8:      Singlet-A      4.0076 eV  309.37 nm  f=0.0000  <S**2>=0.000
     102 ->106         0.68749
     102 ->108         0.11513
 
 Excited State   9:      Singlet-A      4.2024 eV  295.03 nm  f=0.0000  <S**2>=0.000
      98 ->106        -0.11468
     101 ->106         0.60302
     101 ->108         0.10316
     104 ->106        -0.24609
 
 Excited State  10:      Singlet-A      4.5922 eV  269.99 nm  f=0.0005  <S**2>=0.000
     100 ->106         0.18495
     103 ->109        -0.37171
     103 ->111        -0.17761
     103 ->120        -0.11928
     104 ->110         0.40658
     104 ->117        -0.11032
     104 ->127        -0.10386
 SavETr:  write IOETrn=   770 NScale= 10 NData=  16 NLR=1 LETran=     190.

 **********************************************************************

            Population analysis using the SCF density.

 **********************************************************************

 Orbital symmetries:
       Occupied  (A) (A) (A) (A) (A) (A) (A) (A) (A) (A) (A) (A)
                 (A) (A) (A) (A) (A) (A) (A) (A) (A) (A) (A) (A)
                 (A) (A) (A) (A) (A) (A) (A) (A) (A) (A) (A) (A)
                 (A) (A) (A) (A) (A) (A) (A) (A) (A) (A) (A) (A)
                 (A) (A) (A) (A) (A) (A) (A) (A) (A) (A) (A) (A)
                 (A) (A) (A) (A) (A) (A) (A) (A) (A) (A) (A) (A)
                 (A) (A) (A) (A) (A) (A) (A) (A) (A) (A) (A) (A)
                 (A) (A) (A) (A) (A) (A) (A) (A) (A) (A) (A) (A)
                 (A) (A) (A) (A) (A) (A) (A) (A) (A)
       Virtual   (A) (A) (A) (A) (A) (A) (A) (A) (A) (A) (A) (A)
                 (A) (A) (A) (A) (A) (A) (A) (A) (A) (A) (A) (A)
                 (A) (A) (A) (A) (A) (A) (A) (A) (A) (A) (A) (A)
                 (A) (A) (A) (A) (A) (A) (A) (A) (A) (A) (A) (A)
                 (A) (A) (A) (A) (A) (A) (A) (A) (A) (A) (A) (A)
                 (A) (A) (A) (A) (A) (A) (A) (A) (A) (A) (A) (A)
                 (A) (A) (A) (A) (A) (A) (A) (A) (A) (A) (A) (A)
                 (A) (A) (A) (A) (A) (A) (A) (A) (A) (A) (A) (A)
                 (A) (A) (A) (A) (A) (A) (A) (A) (A) (A) (A) (A)
                 (A) (A) (A) (A) (A) (A) (A) (A) (A) (A) (A) (A)
                 (A) (A) (A) (A) (A) (A) (A) (A) (A) (A) (A) (A)
                 (A) (A) (A) (A) (A) (A) (A) (A) (A) (A) (A) (A)
                 (A) (A) (A) (A) (A) (A) (A) (A) (A) (A) (A) (A)
                 (A) (A) (A) (A) (A) (A) (A) (A) (A) (A) (A) (A)
                 (A) (A) (A) (A) (A) (A) (A) (A) (A) (A) (A) (A)
                 (A) (A) (A) (A) (A) (A) (A) (A) (A) (A) (A) (A)
                 (A) (A) (A) (A) (A) (A) (A) (A) (A) (A) (A) (A)
                 (A) (A) (A) (A) (A) (A) (A) (A) (A) (A) (A) (A)
                 (A) (A) (A) (A) (A) (A) (A) (A) (A) (A) (A) (A)
                 (A) (A) (A) (A) (A) (A) (A) (A) (A) (A) (A) (A)
                 (A) (A) (A) (A) (A) (A) (A) (A) (A) (A) (A) (A)
                 (A) (A) (A) (A) (A) (A) (A) (A) (A) (A) (A) (A)
                 (A) (A) (A) (A) (A) (A) (A) (A) (A) (A) (A) (A)
                 (A) (A) (A) (A) (A) (A) (A) (A) (A) (A) (A) (A)
                 (A) (A) (A) (A) (A) (A) (A) (A) (A) (A) (A) (A)
                 (A) (A) (A) (A) (A) (A) (A) (A) (A) (A) (A) (A)
                 (A) (A) (A) (A) (A) (A) (A) (A) (A) (A) (A) (A)
                 (A) (A) (A) (A) (A) (A) (A) (A) (A) (A) (A) (A)
                 (A) (A) (A) (A) (A) (A) (A) (A) (A) (A) (A) (A)
                 (A) (A) (A) (A) (A) (A) (A) (A) (A) (A) (A) (A)
                 (A) (A) (A) (A) (A) (A) (A) (A) (A) (A) (A) (A)
                 (A) (A) (A) (A) (A) (A) (A) (A) (A) (A) (A) (A)
                 (A) (A) (A) (A) (A) (A) (A) (A) (A) (A) (A) (A)
                 (A) (A) (A) (A) (A) (A) (A) (A) (A) (A) (A) (A)
                 (A) (A) (A) (A) (A) (A) (A) (A) (A) (A) (A) (A)
                 (A) (A) (A) (A) (A) (A) (A) (A) (A) (A) (A) (A)
                 (A) (A) (A) (A) (A) (A) (A) (A) (A) (A) (A) (A)
                 (A) (A) (A) (A) (A) (A) (A) (A) (A) (A) (A) (A)
                 (A) (A) (A) (A) (A) (A) (A) (A) (A) (A) (A) (A)
                 (A) (A) (A) (A) (A) (A) (A) (A) (A) (A) (A) (A)
                 (A) (A) (A) (A) (A) (A) (A) (A) (A) (A) (A) (A)
                 (A) (A) (A) (A) (A) (A) (A) (A) (A)
 The electronic state is 1-A.
 Alpha  occ. eigenvalues --  -88.97832 -88.97832 -19.21265 -19.21265 -14.45862
 Alpha  occ. eigenvalues --  -14.45862 -14.44201 -14.44201 -10.38755 -10.38754
 Alpha  occ. eigenvalues --  -10.35641 -10.35640 -10.35480 -10.35480 -10.34120
 Alpha  occ. eigenvalues --  -10.34120 -10.32543 -10.32543 -10.32354 -10.32354
 Alpha  occ. eigenvalues --  -10.29547 -10.29547 -10.28426 -10.28426 -10.28253
 Alpha  occ. eigenvalues --  -10.28253 -10.27394 -10.27355  -8.03915  -8.03915
 Alpha  occ. eigenvalues --   -6.00501  -6.00501  -6.00161  -6.00161  -5.99498
 Alpha  occ. eigenvalues --   -5.99498  -1.13723  -1.13156  -1.07212  -1.06867
 Alpha  occ. eigenvalues --   -1.05844  -1.04784  -0.94811  -0.94795  -0.90797
 Alpha  occ. eigenvalues --   -0.90705  -0.89315  -0.85569  -0.84755  -0.84228
 Alpha  occ. eigenvalues --   -0.84028  -0.79979  -0.77060  -0.75551  -0.74628
 Alpha  occ. eigenvalues --   -0.73428  -0.70073  -0.68745  -0.67593  -0.67333
 Alpha  occ. eigenvalues --   -0.64742  -0.61471  -0.60407  -0.59196  -0.58466
 Alpha  occ. eigenvalues --   -0.57693  -0.57390  -0.56887  -0.56736  -0.55651
 Alpha  occ. eigenvalues --   -0.55408  -0.54854  -0.54759  -0.54578  -0.53136
 Alpha  occ. eigenvalues --   -0.52176  -0.51487  -0.50751  -0.50618  -0.49551
 Alpha  occ. eigenvalues --   -0.48204  -0.48189  -0.47183  -0.46923  -0.46346
 Alpha  occ. eigenvalues --   -0.44238  -0.43924  -0.43665  -0.43485  -0.41642
 Alpha  occ. eigenvalues --   -0.41192  -0.40114  -0.40029  -0.39168  -0.39115
 Alpha  occ. eigenvalues --   -0.36313  -0.36081  -0.34926  -0.34915  -0.34630
 Alpha  occ. eigenvalues --   -0.32928  -0.32652  -0.26499  -0.26468  -0.26096
 Alpha virt. eigenvalues --   -0.04927  -0.04170  -0.04097   0.01988   0.02002
 Alpha virt. eigenvalues --    0.02245   0.02369   0.03552   0.03652   0.04032
 Alpha virt. eigenvalues --    0.04438   0.04710   0.05000   0.05006   0.05422
 Alpha virt. eigenvalues --    0.05731   0.05816   0.06158   0.06572   0.07470
 Alpha virt. eigenvalues --    0.07658   0.07817   0.08202   0.08287   0.08802
 Alpha virt. eigenvalues --    0.08823   0.08976   0.09861   0.09904   0.10244
 Alpha virt. eigenvalues --    0.10854   0.10883   0.11433   0.11639   0.12325
 Alpha virt. eigenvalues --    0.12408   0.12581   0.13198   0.13340   0.13654
 Alpha virt. eigenvalues --    0.13722   0.13789   0.14096   0.14103   0.14685
 Alpha virt. eigenvalues --    0.14764   0.15522   0.15621   0.16261   0.16351
 Alpha virt. eigenvalues --    0.16629   0.16982   0.17195   0.17437   0.17560
 Alpha virt. eigenvalues --    0.18175   0.18475   0.18541   0.18603   0.19336
 Alpha virt. eigenvalues --    0.19358   0.19783   0.20017   0.20103   0.20288
 Alpha virt. eigenvalues --    0.20426   0.20731   0.20979   0.21310   0.21474
 Alpha virt. eigenvalues --    0.21541   0.21992   0.22181   0.22375   0.22644
 Alpha virt. eigenvalues --    0.23036   0.23674   0.23879   0.23937   0.24266
 Alpha virt. eigenvalues --    0.24444   0.24876   0.24922   0.24942   0.25883
 Alpha virt. eigenvalues --    0.25940   0.26080   0.26442   0.26555   0.26917
 Alpha virt. eigenvalues --    0.27065   0.27121   0.27516   0.27756   0.28185
 Alpha virt. eigenvalues --    0.28429   0.28459   0.28847   0.29091   0.29436
 Alpha virt. eigenvalues --    0.29547   0.29616   0.30115   0.30391   0.30495
 Alpha virt. eigenvalues --    0.30750   0.31098   0.31328   0.31522   0.31966
 Alpha virt. eigenvalues --    0.32136   0.32824   0.33049   0.33552   0.33612
 Alpha virt. eigenvalues --    0.33897   0.34039   0.34071   0.34460   0.35273
 Alpha virt. eigenvalues --    0.35413   0.35492   0.35636   0.36316   0.36770
 Alpha virt. eigenvalues --    0.37216   0.37439   0.38170   0.38459   0.38743
 Alpha virt. eigenvalues --    0.39213   0.39911   0.40036   0.40196   0.41248
 Alpha virt. eigenvalues --    0.41267   0.41878   0.42061   0.42472   0.42679
 Alpha virt. eigenvalues --    0.42861   0.44373   0.44919   0.45299   0.45827
 Alpha virt. eigenvalues --    0.46584   0.46945   0.47785   0.47944   0.49221
 Alpha virt. eigenvalues --    0.49452   0.50453   0.51056   0.51205   0.52373
 Alpha virt. eigenvalues --    0.52406   0.53424   0.53530   0.55181   0.56088
 Alpha virt. eigenvalues --    0.56425   0.56752   0.57236   0.57272   0.62313
 Alpha virt. eigenvalues --    0.62671   0.63373   0.63852   0.64364   0.64554
 Alpha virt. eigenvalues --    0.67198   0.68227   0.68529   0.68787   0.70292
 Alpha virt. eigenvalues --    0.71973   0.72094   0.72690   0.73165   0.74130
 Alpha virt. eigenvalues --    0.74476   0.74685   0.74776   0.75800   0.75810
 Alpha virt. eigenvalues --    0.76487   0.76523   0.77935   0.77985   0.79047
 Alpha virt. eigenvalues --    0.80247   0.80460   0.80685   0.80919   0.81383
 Alpha virt. eigenvalues --    0.81978   0.82023   0.82817   0.83645   0.83671
 Alpha virt. eigenvalues --    0.84129   0.84569   0.85712   0.87029   0.87534
 Alpha virt. eigenvalues --    0.88400   0.88625   0.89366   0.89576   0.89987
 Alpha virt. eigenvalues --    0.91763   0.92487   0.93797   0.94047   0.94357
 Alpha virt. eigenvalues --    0.95654   0.95954   0.97053   0.98759   0.99143
 Alpha virt. eigenvalues --    0.99632   0.99815   1.00584   1.00899   1.01325
 Alpha virt. eigenvalues --    1.01859   1.02497   1.02969   1.03238   1.03779
 Alpha virt. eigenvalues --    1.04203   1.04509   1.05130   1.05379   1.05494
 Alpha virt. eigenvalues --    1.06900   1.08170   1.09083   1.10184   1.10878
 Alpha virt. eigenvalues --    1.11291   1.12424   1.12837   1.14374   1.14718
 Alpha virt. eigenvalues --    1.15102   1.15914   1.15970   1.16921   1.17185
 Alpha virt. eigenvalues --    1.17489   1.17905   1.18720   1.19661   1.20555
 Alpha virt. eigenvalues --    1.20879   1.21766   1.23050   1.23303   1.25149
 Alpha virt. eigenvalues --    1.26238   1.26720   1.28274   1.28625   1.28797
 Alpha virt. eigenvalues --    1.31079   1.31086   1.31499   1.33184   1.33812
 Alpha virt. eigenvalues --    1.34564   1.34626   1.34994   1.35073   1.37064
 Alpha virt. eigenvalues --    1.38246   1.39132   1.39657   1.39965   1.41047
 Alpha virt. eigenvalues --    1.41327   1.42206   1.42262   1.42828   1.43476
 Alpha virt. eigenvalues --    1.44395   1.45249   1.45670   1.46122   1.46577
 Alpha virt. eigenvalues --    1.46972   1.47768   1.48265   1.48725   1.49175
 Alpha virt. eigenvalues --    1.49620   1.50346   1.51845   1.53834   1.54323
 Alpha virt. eigenvalues --    1.56387   1.57382   1.58024   1.59500   1.59547
 Alpha virt. eigenvalues --    1.61822   1.63102   1.63195   1.64751   1.67863
 Alpha virt. eigenvalues --    1.72040   1.72846   1.72846   1.75068   1.76217
 Alpha virt. eigenvalues --    1.76297   1.76854   1.77568   1.79234   1.81352
 Alpha virt. eigenvalues --    1.82295   1.83049   1.85482   1.87073   1.88245
 Alpha virt. eigenvalues --    1.88392   1.89298   1.89505   1.90682   1.91081
 Alpha virt. eigenvalues --    1.92848   1.93729   1.94710   1.94959   1.95121
 Alpha virt. eigenvalues --    1.95657   1.96756   1.97274   1.98592   1.99336
 Alpha virt. eigenvalues --    2.00337   2.00588   2.01496   2.02702   2.03052
 Alpha virt. eigenvalues --    2.03755   2.04981   2.06252   2.06794   2.07711
 Alpha virt. eigenvalues --    2.08205   2.09533   2.09605   2.10529   2.10954
 Alpha virt. eigenvalues --    2.12341   2.12780   2.14354   2.15320   2.15941
 Alpha virt. eigenvalues --    2.16022   2.17423   2.17555   2.17629   2.19109
 Alpha virt. eigenvalues --    2.19473   2.20138   2.20927   2.22562   2.23372
 Alpha virt. eigenvalues --    2.24137   2.24416   2.24685   2.28144   2.30240
 Alpha virt. eigenvalues --    2.31742   2.32696   2.33891   2.35679   2.36092
 Alpha virt. eigenvalues --    2.36237   2.36332   2.38162   2.39162   2.41362
 Alpha virt. eigenvalues --    2.42185   2.43938   2.45345   2.47007   2.47182
 Alpha virt. eigenvalues --    2.50001   2.50014   2.50182   2.50394   2.51775
 Alpha virt. eigenvalues --    2.53473   2.54105   2.54363   2.54753   2.55877
 Alpha virt. eigenvalues --    2.56269   2.57911   2.58300   2.59231   2.60046
 Alpha virt. eigenvalues --    2.60126   2.60387   2.61926   2.62439   2.63988
 Alpha virt. eigenvalues --    2.64866   2.65652   2.66525   2.68303   2.68449
 Alpha virt. eigenvalues --    2.68801   2.70867   2.71596   2.72533   2.74491
 Alpha virt. eigenvalues --    2.75042   2.76360   2.77206   2.78986   2.79232
 Alpha virt. eigenvalues --    2.80631   2.80824   2.82803   2.84301   2.85035
 Alpha virt. eigenvalues --    2.85301   2.85710   2.88226   2.88429   2.90449
 Alpha virt. eigenvalues --    2.91336   2.92933   2.93720   2.97245   2.98599
 Alpha virt. eigenvalues --    2.99672   3.01322   3.02993   3.06115   3.07404
 Alpha virt. eigenvalues --    3.08958   3.10124   3.12223   3.12440   3.16484
 Alpha virt. eigenvalues --    3.18595   3.23198   3.23875   3.29965   3.31233
 Alpha virt. eigenvalues --    3.33756   3.35134   3.35739   3.36282   3.37538
 Alpha virt. eigenvalues --    3.37886   3.42013   3.47169   3.48242   3.50270
 Alpha virt. eigenvalues --    3.50551   3.50857   3.51243   3.52850   3.66911
 Alpha virt. eigenvalues --    3.68084   3.79808   3.79835   4.05131   4.05233
 Alpha virt. eigenvalues --    4.27918   4.29182   4.31564   4.35865   4.36533
 Alpha virt. eigenvalues --    4.40280   4.42620   4.42708   4.44781   4.45987
 Alpha virt. eigenvalues --    4.49764   4.52229   4.53279   4.55907   4.57752
 Alpha virt. eigenvalues --    4.58397   4.58705   4.61715   4.64523   4.69873
 Alpha virt. eigenvalues --    4.74448   4.83982   4.92434   4.96352   5.06274
 Alpha virt. eigenvalues --    5.16621
          Condensed to atoms (all electrons):
              1          2          3          4          5          6
     1  N    7.283783   0.376435   0.117800  -0.157997  -0.288313   0.013082
     2  C    0.376435   9.882208  -0.277915  -1.355896  -4.132720   0.113457
     3  C    0.117800  -0.277915  10.390791  -0.571533  -1.176200   0.447759
     4  C   -0.157997  -1.355896  -0.571533  14.697783   3.024772  -1.176295
     5  C   -0.288313  -4.132720  -1.176200   3.024772  14.697421  -0.571535
     6  C    0.013082   0.113457   0.447759  -1.176295  -0.571535  10.390792
     7  C   -0.058400   0.917676   0.113447  -4.132826  -1.355848  -0.277865
     8  N    0.011191  -0.058405   0.013082  -0.288300  -0.157992   0.117821
     9  O   -0.072090   0.212076   0.003234   0.011583   0.050153  -0.009240
    10  O   -0.005293  -0.004809  -0.009239   0.050154   0.011583   0.003231
    11  H    0.000159   0.004349  -0.009152   0.038998   0.051932  -0.010184
    12  H    0.297750  -0.057618  -0.010182   0.051931   0.038997  -0.009152
    13  C    0.025124  -0.106041   0.114667  -0.733107  -1.083214  -1.486824
    14  C    0.001746   0.079489   0.011160  -0.134700   0.289030  -0.427790
    15  C    0.002483   0.015300   0.038266  -0.272793  -0.255860  -0.896934
    16  H    0.000000  -0.000019  -0.000031   0.000297  -0.000068   0.007831
    17  C    0.004878   0.116495  -0.073020   0.473776   0.481542   0.910203
    18  H   -0.000030  -0.001835   0.000492   0.000407   0.005577   0.006160
    19  C    0.043173   0.105729   0.026860  -0.637638  -0.936687  -1.006753
    20  H    0.000974  -0.004584   0.003564   0.005435   0.039505  -0.016398
    21  C   -0.089247  -1.025497  -0.498096  -1.314226   0.538277   0.419413
    22  N    0.000275   0.018361   0.017209  -0.095301   0.052222   0.009544
    23  C    0.031227   0.116749  -0.427590   0.289035  -0.134642   0.011150
    24  C    0.101781   0.092676  -1.487159  -1.083215  -0.733279   0.114737
    25  C   -0.406754   0.269201   0.419706   0.538220  -1.314022  -0.498171
    26  C    0.155712   0.157112  -1.007000  -0.936659  -0.637667   0.026865
    27  H   -0.001455  -0.003699  -0.016395   0.039504   0.005436   0.003563
    28  C   -0.003490  -0.045285   0.910400   0.481544   0.473827  -0.073036
    29  H   -0.000027  -0.000062   0.006161   0.005577   0.000407   0.000492
    30  C    0.015838   0.030791  -0.897104  -0.255857  -0.272810   0.038277
    31  H    0.000057   0.000046   0.007831  -0.000068   0.000297  -0.000031
    32  N   -0.024403   0.029688   0.009565   0.052218  -0.095293   0.017207
    33  C   -0.000328  -0.003292  -0.184130   0.001203  -0.041336   0.007127
    34  H    0.002892  -0.002130   0.007963  -0.003735   0.003141  -0.000395
    35  H   -0.002253   0.000459  -0.008370   0.003848  -0.001991   0.000154
    36  C    0.000419   0.004237   0.007127  -0.041338   0.001203  -0.184117
    37  H    0.000000   0.000152   0.000154  -0.001991   0.003848  -0.008368
    38  H    0.000000  -0.000143  -0.000395   0.003141  -0.003735   0.007962
    39  S    0.005703   0.004337   0.053485   0.001329   0.013517  -0.002774
    40  S   -0.000093  -0.005216  -0.002774   0.013518   0.001326   0.053473
    41  H    0.000766   0.017060  -0.075975  -0.037374  -0.026866   0.000625
    42  H    0.000375   0.025827   0.000625  -0.026864  -0.037372  -0.075970
              7          8          9         10         11         12
     1  N   -0.058400   0.011191  -0.072090  -0.005293   0.000159   0.297750
     2  C    0.917676  -0.058405   0.212076  -0.004809   0.004349  -0.057618
     3  C    0.113447   0.013082   0.003234  -0.009239  -0.009152  -0.010182
     4  C   -4.132826  -0.288300   0.011583   0.050154   0.038998   0.051931
     5  C   -1.355848  -0.157992   0.050153   0.011583   0.051932   0.038997
     6  C   -0.277865   0.117821  -0.009240   0.003231  -0.010184  -0.009152
     7  C    9.882220   0.376429  -0.004809   0.212080  -0.057617   0.004349
     8  N    0.376429   7.283778  -0.005293  -0.072090   0.297749   0.000159
     9  O   -0.004809  -0.005293   8.438887   0.000102   0.000011  -0.002864
    10  O    0.212080  -0.072090   0.000102   8.438884  -0.002864   0.000011
    11  H   -0.057617   0.297749   0.000011  -0.002864   0.338384   0.000000
    12  H    0.004349   0.000159  -0.002864   0.000011   0.000000   0.338385
    13  C    0.092645   0.101794  -0.011408  -0.003573  -0.021053   0.000062
    14  C    0.116761   0.031230   0.007704  -0.002564   0.027908  -0.000022
    15  C    0.030790   0.015831  -0.013663   0.000350  -0.002796   0.000010
    16  H    0.000046   0.000057   0.000006   0.000000   0.000000   0.000000
    17  C   -0.045278  -0.003491  -0.042977  -0.000281   0.004001   0.000630
    18  H   -0.000062  -0.000027   0.000294   0.000000   0.000000   0.000000
    19  C    0.157093   0.155696  -0.090360   0.003025  -0.015429   0.001101
    20  H   -0.003699  -0.001455  -0.000286  -0.000005   0.000003   0.000000
    21  C    0.269283  -0.406765   0.101155  -0.023005  -0.026127  -0.002544
    22  N    0.029689  -0.024398  -0.000059  -0.002525   0.029973  -0.000002
    23  C    0.079475   0.001746  -0.002564   0.007705  -0.000022   0.027907
    24  C   -0.105937   0.025128  -0.003574  -0.011409   0.000062  -0.021050
    25  C   -1.025627  -0.089251  -0.023003   0.101154  -0.002544  -0.026127
    26  C    0.105711   0.043169   0.003026  -0.090365   0.001101  -0.015429
    27  H   -0.004582   0.000974  -0.000005  -0.000286   0.000000   0.000003
    28  C    0.116497   0.004880  -0.000281  -0.042969   0.000630   0.004001
    29  H   -0.001835  -0.000030   0.000000   0.000294   0.000000   0.000000
    30  C    0.015317   0.002483   0.000350  -0.013663   0.000010  -0.002796
    31  H   -0.000019   0.000000   0.000000   0.000006   0.000000   0.000000
    32  N    0.018355   0.000275  -0.002525  -0.000059  -0.000002   0.029972
    33  C    0.004236   0.000419   0.000411  -0.000055   0.000000  -0.004561
    34  H   -0.000143   0.000000  -0.000021   0.000000   0.000000  -0.000143
    35  H    0.000152   0.000000   0.000002   0.000000   0.000000   0.000004
    36  C   -0.003293  -0.000331  -0.000055   0.000411  -0.004561   0.000000
    37  H    0.000459  -0.002253   0.000000   0.000002   0.000004   0.000000
    38  H   -0.002130   0.002892   0.000000  -0.000021  -0.000143   0.000000
    39  S   -0.005216  -0.000093  -0.000027   0.000095   0.000000  -0.000402
    40  S    0.004337   0.005705   0.000095  -0.000027  -0.000402   0.000000
    41  H    0.025827   0.000375   0.000023  -0.000153   0.000000   0.000123
    42  H    0.017059   0.000766  -0.000153   0.000023   0.000123   0.000000
             13         14         15         16         17         18
     1  N    0.025124   0.001746   0.002483   0.000000   0.004878  -0.000030
     2  C   -0.106041   0.079489   0.015300  -0.000019   0.116495  -0.001835
     3  C    0.114667   0.011160   0.038266  -0.000031  -0.073020   0.000492
     4  C   -0.733107  -0.134700  -0.272793   0.000297   0.473776   0.000407
     5  C   -1.083214   0.289030  -0.255860  -0.000068   0.481542   0.005577
     6  C   -1.486824  -0.427790  -0.896934   0.007831   0.910203   0.006160
     7  C    0.092645   0.116761   0.030790   0.000046  -0.045278  -0.000062
     8  N    0.101794   0.031230   0.015831   0.000057  -0.003491  -0.000027
     9  O   -0.011408   0.007704  -0.013663   0.000006  -0.042977   0.000294
    10  O   -0.003573  -0.002564   0.000350   0.000000  -0.000281   0.000000
    11  H   -0.021053   0.027908  -0.002796   0.000000   0.004001   0.000000
    12  H    0.000062  -0.000022   0.000010   0.000000   0.000630   0.000000
    13  C   15.602445  -3.498441   1.496626   0.027338  -3.013788  -0.009715
    14  C   -3.498441  13.844750  -5.336662   0.139343   2.404611  -0.013259
    15  C    1.496626  -5.336662  13.677713   0.151937  -2.852815  -0.020867
    16  H    0.027338   0.139343   0.151937   0.543837   0.007550  -0.005299
    17  C   -3.013788   2.404611  -2.852815   0.007550   9.910398   0.317960
    18  H   -0.009715  -0.013259  -0.020867  -0.005299   0.317960   0.547680
    19  C    3.224117  -2.698913   3.063595  -0.024228  -4.471310   0.029168
    20  H   -0.007077  -0.001579  -0.012224  -0.000119   0.111704  -0.006177
    21  C   -4.243417   0.302248  -2.721317   0.002899   1.780561   0.009949
    22  N    0.325059   0.254227  -0.117257  -0.001109   0.023250   0.000079
    23  C    0.005917  -0.000296   0.000405   0.000000  -0.000394   0.000000
    24  C   -0.018968   0.005918  -0.004057   0.000000   0.008161  -0.000003
    25  C    0.105268  -0.003467   0.005835   0.000000  -0.014088   0.000021
    26  C   -0.059577   0.001067  -0.002733   0.000000   0.005600   0.000003
    27  H    0.000395  -0.000001   0.000009   0.000000  -0.000027   0.000000
    28  C    0.008160  -0.000395   0.000387   0.000000  -0.000852   0.000000
    29  H   -0.000003   0.000000   0.000000   0.000000   0.000000   0.000000
    30  C   -0.004057   0.000405  -0.000287   0.000000   0.000387   0.000000
    31  H    0.000000   0.000000   0.000000   0.000000   0.000000   0.000000
    32  N    0.000530  -0.000013   0.000051   0.000000   0.000122   0.000000
    33  C   -0.000295   0.000053  -0.000052   0.000000  -0.000061   0.000000
    34  H   -0.000002   0.000000   0.000000   0.000000   0.000003   0.000000
    35  H    0.000000   0.000000   0.000000   0.000000   0.000000   0.000000
    36  C   -0.415341   0.078507   0.461177  -0.000190  -0.098899   0.000717
    37  H   -0.107194   0.108553   0.012174  -0.000001   0.001554   0.000000
    38  H    0.046446  -0.032384  -0.005428  -0.000001  -0.002428   0.000000
    39  S    0.000214  -0.000013   0.000015   0.000000   0.000021   0.000000
    40  S    0.246714   0.113337  -0.842367   0.001584   0.178004  -0.003604
    41  H   -0.000091   0.000008  -0.000006   0.000000   0.000027   0.000000
    42  H    0.046336   0.023417   0.033291   0.000008  -0.025467  -0.000136
             19         20         21         22         23         24
     1  N    0.043173   0.000974  -0.089247   0.000275   0.031227   0.101781
     2  C    0.105729  -0.004584  -1.025497   0.018361   0.116749   0.092676
     3  C    0.026860   0.003564  -0.498096   0.017209  -0.427590  -1.487159
     4  C   -0.637638   0.005435  -1.314226  -0.095301   0.289035  -1.083215
     5  C   -0.936687   0.039505   0.538277   0.052222  -0.134642  -0.733279
     6  C   -1.006753  -0.016398   0.419413   0.009544   0.011150   0.114737
     7  C    0.157093  -0.003699   0.269283   0.029689   0.079475  -0.105937
     8  N    0.155696  -0.001455  -0.406765  -0.024398   0.001746   0.025128
     9  O   -0.090360  -0.000286   0.101155  -0.000059  -0.002564  -0.003574
    10  O    0.003025  -0.000005  -0.023005  -0.002525   0.007705  -0.011409
    11  H   -0.015429   0.000003  -0.026127   0.029973  -0.000022   0.000062
    12  H    0.001101   0.000000  -0.002544  -0.000002   0.027907  -0.021050
    13  C    3.224117  -0.007077  -4.243417   0.325059   0.005917  -0.018968
    14  C   -2.698913  -0.001579   0.302248   0.254227  -0.000296   0.005918
    15  C    3.063595  -0.012224  -2.721317  -0.117257   0.000405  -0.004057
    16  H   -0.024228  -0.000119   0.002899  -0.001109   0.000000   0.000000
    17  C   -4.471310   0.111704   1.780561   0.023250  -0.000394   0.008161
    18  H    0.029168  -0.006177   0.009949   0.000079   0.000000  -0.000003
    19  C   13.047625   0.210675  -3.977856   0.031820   0.001067  -0.059576
    20  H    0.210675   0.488774   0.003593  -0.000564  -0.000001   0.000395
    21  C   -3.977856   0.003593  17.314330  -0.350860  -0.003468   0.105280
    22  N    0.031820  -0.000564  -0.350860   7.052097  -0.000013   0.000530
    23  C    0.001067  -0.000001  -0.003468  -0.000013  13.844820  -3.498443
    24  C   -0.059576   0.000395   0.105280   0.000530  -3.498443  15.602426
    25  C    0.011283  -0.000173  -0.390864  -0.005517   0.302101  -4.243224
    26  C   -0.003113  -0.000043   0.011288   0.002984  -2.699073   3.224235
    27  H   -0.000043   0.000000  -0.000173   0.000002  -0.001579  -0.007080
    28  C    0.005600  -0.000027  -0.014091   0.000122   2.404743  -3.013966
    29  H    0.000003   0.000000   0.000021   0.000000  -0.013256  -0.009717
    30  C   -0.002733   0.000009   0.005837   0.000051  -5.336753   1.496781
    31  H    0.000000   0.000000   0.000000   0.000000   0.139342   0.027338
    32  N    0.002984   0.000002  -0.005517   0.000018   0.254225   0.325032
    33  C   -0.000451   0.000004   0.001220   0.000007   0.078501  -0.415295
    34  H   -0.000001   0.000000  -0.000007   0.000000  -0.032379   0.046440
    35  H    0.000000   0.000000   0.000001   0.000000   0.108551  -0.107188
    36  C    0.183576   0.000059  -0.343086   0.064930   0.000053  -0.000295
    37  H   -0.001369   0.000000  -0.004679  -0.058512   0.000000   0.000000
    38  H    0.002154   0.000000  -0.006329  -0.040553   0.000000  -0.000002
    39  S    0.000031  -0.000001  -0.000309  -0.000003   0.113342   0.246676
    40  S   -0.201093   0.000115   0.272795  -0.024061  -0.000013   0.000214
    41  H   -0.000152   0.000000   0.000095   0.000002   0.023415   0.046347
    42  H    0.062221  -0.001359   0.231499  -0.002580   0.000008  -0.000091
             25         26         27         28         29         30
     1  N   -0.406754   0.155712  -0.001455  -0.003490  -0.000027   0.015838
     2  C    0.269201   0.157112  -0.003699  -0.045285  -0.000062   0.030791
     3  C    0.419706  -1.007000  -0.016395   0.910400   0.006161  -0.897104
     4  C    0.538220  -0.936659   0.039504   0.481544   0.005577  -0.255857
     5  C   -1.314022  -0.637667   0.005436   0.473827   0.000407  -0.272810
     6  C   -0.498171   0.026865   0.003563  -0.073036   0.000492   0.038277
     7  C   -1.025627   0.105711  -0.004582   0.116497  -0.001835   0.015317
     8  N   -0.089251   0.043169   0.000974   0.004880  -0.000030   0.002483
     9  O   -0.023003   0.003026  -0.000005  -0.000281   0.000000   0.000350
    10  O    0.101154  -0.090365  -0.000286  -0.042969   0.000294  -0.013663
    11  H   -0.002544   0.001101   0.000000   0.000630   0.000000   0.000010
    12  H   -0.026127  -0.015429   0.000003   0.004001   0.000000  -0.002796
    13  C    0.105268  -0.059577   0.000395   0.008160  -0.000003  -0.004057
    14  C   -0.003467   0.001067  -0.000001  -0.000395   0.000000   0.000405
    15  C    0.005835  -0.002733   0.000009   0.000387   0.000000  -0.000287
    16  H    0.000000   0.000000   0.000000   0.000000   0.000000   0.000000
    17  C   -0.014088   0.005600  -0.000027  -0.000852   0.000000   0.000387
    18  H    0.000021   0.000003   0.000000   0.000000   0.000000   0.000000
    19  C    0.011283  -0.003113  -0.000043   0.005600   0.000003  -0.002733
    20  H   -0.000173  -0.000043   0.000000  -0.000027   0.000000   0.000009
    21  C   -0.390864   0.011288  -0.000173  -0.014091   0.000021   0.005837
    22  N   -0.005517   0.002984   0.000002   0.000122   0.000000   0.000051
    23  C    0.302101  -2.699073  -0.001579   2.404743  -0.013256  -5.336753
    24  C   -4.243224   3.224235  -0.007080  -3.013966  -0.009717   1.496781
    25  C   17.314114  -3.977704   0.003583   1.780450   0.009949  -2.721328
    26  C   -3.977704  13.047973   0.210670  -4.471687   0.029160   3.063742
    27  H    0.003583   0.210670   0.488774   0.111718  -0.006177  -0.012226
    28  C    1.780450  -4.471687   0.111718   9.910885   0.317970  -2.852976
    29  H    0.009949   0.029160  -0.006177   0.317970   0.547680  -0.020870
    30  C   -2.721328   3.063742  -0.012226  -2.852976  -0.020870  13.677801
    31  H    0.002900  -0.024226  -0.000119   0.007548  -0.005299   0.151938
    32  N   -0.350825   0.031805  -0.000563   0.023255   0.000079  -0.117273
    33  C   -0.343092   0.183570   0.000059  -0.098901   0.000717   0.461165
    34  H   -0.006327   0.002153   0.000000  -0.002428   0.000000  -0.005428
    35  H   -0.004683  -0.001369   0.000000   0.001554   0.000000   0.012176
    36  C    0.001220  -0.000451   0.000004  -0.000061   0.000000  -0.000052
    37  H    0.000001   0.000000   0.000000   0.000000   0.000000   0.000000
    38  H   -0.000007  -0.000001   0.000000   0.000003   0.000000   0.000000
    39  S    0.272803  -0.201101   0.000115   0.178017  -0.003604  -0.842359
    40  S   -0.000309   0.000031  -0.000001   0.000021   0.000000   0.000015
    41  H    0.231507   0.062216  -0.001359  -0.025471  -0.000136   0.033292
    42  H    0.000095  -0.000152   0.000000   0.000027   0.000000  -0.000006
             31         32         33         34         35         36
     1  N    0.000057  -0.024403  -0.000328   0.002892  -0.002253   0.000419
     2  C    0.000046   0.029688  -0.003292  -0.002130   0.000459   0.004237
     3  C    0.007831   0.009565  -0.184130   0.007963  -0.008370   0.007127
     4  C   -0.000068   0.052218   0.001203  -0.003735   0.003848  -0.041338
     5  C    0.000297  -0.095293  -0.041336   0.003141  -0.001991   0.001203
     6  C   -0.000031   0.017207   0.007127  -0.000395   0.000154  -0.184117
     7  C   -0.000019   0.018355   0.004236  -0.000143   0.000152  -0.003293
     8  N    0.000000   0.000275   0.000419   0.000000   0.000000  -0.000331
     9  O    0.000000  -0.002525   0.000411  -0.000021   0.000002  -0.000055
    10  O    0.000006  -0.000059  -0.000055   0.000000   0.000000   0.000411
    11  H    0.000000  -0.000002   0.000000   0.000000   0.000000  -0.004561
    12  H    0.000000   0.029972  -0.004561  -0.000143   0.000004   0.000000
    13  C    0.000000   0.000530  -0.000295  -0.000002   0.000000  -0.415341
    14  C    0.000000  -0.000013   0.000053   0.000000   0.000000   0.078507
    15  C    0.000000   0.000051  -0.000052   0.000000   0.000000   0.461177
    16  H    0.000000   0.000000   0.000000   0.000000   0.000000  -0.000190
    17  C    0.000000   0.000122  -0.000061   0.000003   0.000000  -0.098899
    18  H    0.000000   0.000000   0.000000   0.000000   0.000000   0.000717
    19  C    0.000000   0.002984  -0.000451  -0.000001   0.000000   0.183576
    20  H    0.000000   0.000002   0.000004   0.000000   0.000000   0.000059
    21  C    0.000000  -0.005517   0.001220  -0.000007   0.000001  -0.343086
    22  N    0.000000   0.000018   0.000007   0.000000   0.000000   0.064930
    23  C    0.139342   0.254225   0.078501  -0.032379   0.108551   0.000053
    24  C    0.027338   0.325032  -0.415295   0.046440  -0.107188  -0.000295
    25  C    0.002900  -0.350825  -0.343092  -0.006327  -0.004683   0.001220
    26  C   -0.024226   0.031805   0.183570   0.002153  -0.001369  -0.000451
    27  H   -0.000119  -0.000563   0.000059   0.000000   0.000000   0.000004
    28  C    0.007548   0.023255  -0.098901  -0.002428   0.001554  -0.000061
    29  H   -0.005299   0.000079   0.000717   0.000000   0.000000   0.000000
    30  C    0.151938  -0.117273   0.461165  -0.005428   0.012176  -0.000052
    31  H    0.543837  -0.001109  -0.000190  -0.000001  -0.000001   0.000000
    32  N   -0.001109   7.052111   0.064929  -0.040553  -0.058512   0.000007
    33  C   -0.000190   0.064929   5.729390   0.380879   0.430383  -0.000001
    34  H   -0.000001  -0.040553   0.380879   0.547298  -0.040671   0.000000
    35  H   -0.000001  -0.058512   0.430383  -0.040671   0.552798   0.000000
    36  C    0.000000   0.000007  -0.000001   0.000000   0.000000   5.729407
    37  H    0.000000   0.000000   0.000000   0.000000   0.000000   0.430384
    38  H    0.000000   0.000000   0.000000   0.000000   0.000000   0.380878
    39  S    0.001584  -0.024061  -0.011163  -0.050423  -0.075914   0.000001
    40  S    0.000000  -0.000003   0.000001   0.000000   0.000000  -0.011176
    41  H    0.000008  -0.002581   0.006002  -0.000023   0.000083   0.000000
    42  H    0.000000   0.000002   0.000000   0.000000   0.000000   0.006002
             37         38         39         40         41         42
     1  N    0.000000   0.000000   0.005703  -0.000093   0.000766   0.000375
     2  C    0.000152  -0.000143   0.004337  -0.005216   0.017060   0.025827
     3  C    0.000154  -0.000395   0.053485  -0.002774  -0.075975   0.000625
     4  C   -0.001991   0.003141   0.001329   0.013518  -0.037374  -0.026864
     5  C    0.003848  -0.003735   0.013517   0.001326  -0.026866  -0.037372
     6  C   -0.008368   0.007962  -0.002774   0.053473   0.000625  -0.075970
     7  C    0.000459  -0.002130  -0.005216   0.004337   0.025827   0.017059
     8  N   -0.002253   0.002892  -0.000093   0.005705   0.000375   0.000766
     9  O    0.000000   0.000000  -0.000027   0.000095   0.000023  -0.000153
    10  O    0.000002  -0.000021   0.000095  -0.000027  -0.000153   0.000023
    11  H    0.000004  -0.000143   0.000000  -0.000402   0.000000   0.000123
    12  H    0.000000   0.000000  -0.000402   0.000000   0.000123   0.000000
    13  C   -0.107194   0.046446   0.000214   0.246714  -0.000091   0.046336
    14  C    0.108553  -0.032384  -0.000013   0.113337   0.000008   0.023417
    15  C    0.012174  -0.005428   0.000015  -0.842367  -0.000006   0.033291
    16  H   -0.000001  -0.000001   0.000000   0.001584   0.000000   0.000008
    17  C    0.001554  -0.002428   0.000021   0.178004   0.000027  -0.025467
    18  H    0.000000   0.000000   0.000000  -0.003604   0.000000  -0.000136
    19  C   -0.001369   0.002154   0.000031  -0.201093  -0.000152   0.062221
    20  H    0.000000   0.000000  -0.000001   0.000115   0.000000  -0.001359
    21  C   -0.004679  -0.006329  -0.000309   0.272795   0.000095   0.231499
    22  N   -0.058512  -0.040553  -0.000003  -0.024061   0.000002  -0.002580
    23  C    0.000000   0.000000   0.113342  -0.000013   0.023415   0.000008
    24  C    0.000000  -0.000002   0.246676   0.000214   0.046347  -0.000091
    25  C    0.000001  -0.000007   0.272803  -0.000309   0.231507   0.000095
    26  C    0.000000  -0.000001  -0.201101   0.000031   0.062216  -0.000152
    27  H    0.000000   0.000000   0.000115  -0.000001  -0.001359   0.000000
    28  C    0.000000   0.000003   0.178017   0.000021  -0.025471   0.000027
    29  H    0.000000   0.000000  -0.003604   0.000000  -0.000136   0.000000
    30  C    0.000000   0.000000  -0.842359   0.000015   0.033292  -0.000006
    31  H    0.000000   0.000000   0.001584   0.000000   0.000008   0.000000
    32  N    0.000000   0.000000  -0.024061  -0.000003  -0.002581   0.000002
    33  C    0.000000   0.000000  -0.011163   0.000001   0.006002   0.000000
    34  H    0.000000   0.000000  -0.050423   0.000000  -0.000023   0.000000
    35  H    0.000000   0.000000  -0.075914   0.000000   0.000083   0.000000
    36  C    0.430384   0.380878   0.000001  -0.011176   0.000000   0.006002
    37  H    0.552798  -0.040671   0.000000  -0.075915   0.000000   0.000083
    38  H   -0.040671   0.547298   0.000000  -0.050421   0.000000  -0.000023
    39  S    0.000000   0.000000  16.152803   0.000000  -0.003472   0.000000
    40  S   -0.075915  -0.050421   0.000000  16.152812   0.000000  -0.003473
    41  H    0.000000   0.000000  -0.003472   0.000000   0.497728   0.000000
    42  H    0.000083  -0.000023   0.000000  -0.003473   0.000000   0.497729
 Mulliken atomic charges:
              1
     1  N   -0.383453
     2  C    0.495256
     3  C    0.010915
     4  C   -0.526561
     5  C   -0.526564
     6  C    0.010908
     7  C    0.495252
     8  N   -0.383454
     9  O   -0.543857
    10  O   -0.543857
    11  H    0.357495
    12  H    0.357493
    13  C   -0.646675
    14  C    0.309026
    15  C    0.351871
    16  H    0.148334
    17  C   -0.096261
    18  H    0.142507
    19  C   -0.240891
    20  H    0.190959
    21  C    0.077736
    22  N   -0.189137
    23  C    0.309002
    24  C   -0.646632
    25  C    0.077697
    26  C   -0.240844
    27  H    0.190959
    28  C   -0.096323
    29  H    0.142507
    30  C    0.351914
    31  H    0.148334
    32  N   -0.189140
    33  C   -0.247072
    34  H    0.194044
    35  H    0.190787
    36  C   -0.247073
    37  H    0.190786
    38  H    0.194044
    39  S    0.176849
    40  S    0.176853
    41  H    0.228132
    42  H    0.228132
 Sum of Mulliken atomic charges =   0.00000
 Mulliken charges with hydrogens summed into heavy atoms:
              1
     1  N   -0.025960
     2  C    0.495256
     3  C    0.010915
     4  C   -0.526561
     5  C   -0.526564
     6  C    0.010908
     7  C    0.495252
     8  N   -0.025959
     9  O   -0.543857
    10  O   -0.543857
    13  C   -0.646675
    14  C    0.309026
    15  C    0.500205
    17  C    0.046246
    19  C   -0.049932
    21  C    0.305868
    22  N   -0.189137
    23  C    0.309002
    24  C   -0.646632
    25  C    0.305829
    26  C   -0.049885
    28  C    0.046184
    30  C    0.500248
    32  N   -0.189140
    33  C    0.137759
    36  C    0.137757
    39  S    0.176849
    40  S    0.176853
 Sum of Mulliken charges with hydrogens summed into heavy atoms =   0.00000
 Electronic spatial extent (au):  <R**2>=          15898.9966
 Charge=              0.0000 electrons
 Dipole moment (field-independent basis, Debye):
    X=              0.0000    Y=              0.0000    Z=              0.1903  Tot=              0.1903
 Quadrupole moment (field-independent basis, Debye-Ang):
   XX=           -152.7468   YY=           -182.8584   ZZ=           -176.8705
   XY=              3.4966   XZ=             -0.0001   YZ=             -0.0003
 Traceless Quadrupole moment (field-independent basis, Debye-Ang):
   XX=             18.0784   YY=            -12.0331   ZZ=             -6.0453
   XY=              3.4966   XZ=             -0.0001   YZ=             -0.0003
 Octapole moment (field-independent basis, Debye-Ang**2):
  XXX=             -0.0007  YYY=             -0.0002  ZZZ=            -16.5108  XYY=             -0.0003
  XXY=              0.0005  XXZ=             -9.0773  XZZ=             -0.0001  YZZ=              0.0002
  YYZ=             42.9673  XYZ=            -21.2691
 Hexadecapole moment (field-independent basis, Debye-Ang**3):
 XXXX=         -18709.4981 YYYY=          -3071.9383 ZZZZ=           -801.5216 XXXY=            303.9535
 XXXZ=             -0.0046 YYYX=             93.3196 YYYZ=             -0.0029 ZZZX=              0.0000
 ZZZY=             -0.0002 XXYY=          -3000.5840 XXZZ=          -3244.4680 YYZZ=           -625.2465
 XXYZ=             -0.0016 YYXZ=             -0.0005 ZZXY=            -23.4987
 N-N= 2.701047430260D+03 E-N=-9.940965751699D+03  KE= 1.922577132297D+03
 1\1\GINC-DLT02\SP\RTD-CAM-B3LYP-FC\6-31+G(d,p)\C20H14N4O2S2\NATHALIA.R
 OSA\18-Sep-2023\0\\# td=(nstates=10) cam-b3lyp/6-31+g(d,p) geom=connec
 tivity\\Energy:\\0,1\N,0,1.626712,1.358431,-0.699493\C,0,0.279126,1.80
 0347,-0.692468\C,0,1.745512,-0.014814,-0.670304\C,0,0.47449,-0.547147,
 -0.654376\C,0,-0.474496,0.547155,-0.654368\C,0,-1.745517,0.014822,-0.6
 70321\C,0,-0.279133,-1.800339,-0.692504\N,0,-1.626718,-1.358424,-0.699
 541\O,0,-0.043487,2.983817,-0.729089\O,0,0.043482,-2.983808,-0.729135\
 H,0,-2.43526,-1.974665,-0.697547\H,0,2.435248,1.974678,-0.697515\C,0,-
 4.250359,-0.134757,-0.142798\C,0,-5.276631,0.541537,0.663689\C,0,-5.18
 1074,1.857567,0.976749\H,0,-5.937873,2.340688,1.58669\C,0,-4.039981,2.
 636318,0.520368\H,0,-3.981121,3.676823,0.825983\C,0,-3.062669,2.116484
 ,-0.244575\H,0,-2.211552,2.715907,-0.55231\C,0,-3.104741,0.685354,-0.7
 38507\N,0,-4.387326,-1.394392,-0.365951\C,0,5.276632,-0.541541,0.66368
 9\C,0,4.250362,0.134754,-0.142798\C,0,3.104734,-0.685353,-0.738495\C,0
 ,3.062657,-2.11648,-0.244554\H,0,2.211539,-2.715902,-0.552287\C,0,4.03
 9968,-2.636314,0.520389\H,0,3.981103,-3.676817,0.826011\C,0,5.181068,-
 1.857568,0.97676\H,0,5.937869,-2.340689,1.586699\N,0,4.387338,1.394386
 ,-0.365963\C,0,5.567845,1.97024,0.230108\H,0,5.289526,2.753866,0.94178
 8\H,0,6.206061,2.410332,-0.5425\C,0,-5.567824,-1.97025,0.230134\H,0,-6
 .20604,-2.41036,-0.542464\H,0,-5.289492,-2.753864,0.941822\S,0,6.51323
 5,0.626794,1.128733\S,0,-6.513224,-0.626803,1.128745\H,0,3.344028,-0.7
 38687,-1.818235\H,0,-3.344044,0.738678,-1.818246\\Version=EM64L-G09Rev
 A.02\State=1-A\HF=-1935.8068662\RMSD=5.439e-09\PG=C01 [X(C20H14N4O2S2)
 ]\\@


 TIME GOES, YOU SAY?  AH NO!
 ALAS, TIME STAYS, WE GO.
    -- A. DOBSON (1840-1921)
 Job cpu time:  0 days  7 hours 29 minutes 34.5 seconds.
 File lengths (MBytes):  RWF=    842 Int=      0 D2E=      0 Chk=    132 Scr=      1
 Normal termination of Gaussian 09 at Mon Sep 18 17:50:25 2023.
