 Entering Link 1 = C:\G09W\l1.exe PID=     10872.
  
 Copyright (c) 1988,1990,1992,1993,1995,1998,2003,2009,2010,
            Gaussian, Inc.  All Rights Reserved.
  
 This is part of the Gaussian(R) 09 program.  It is based on
 the Gaussian(R) 03 system (copyright 2003, Gaussian, Inc.),
 the Gaussian(R) 98 system (copyright 1998, Gaussian, Inc.),
 the Gaussian(R) 94 system (copyright 1995, Gaussian, Inc.),
 the Gaussian 92(TM) system (copyright 1992, Gaussian, Inc.),
 the Gaussian 90(TM) system (copyright 1990, Gaussian, Inc.),
 the Gaussian 88(TM) system (copyright 1988, Gaussian, Inc.),
 the Gaussian 86(TM) system (copyright 1986, Carnegie Mellon
 University), and the Gaussian 82(TM) system (copyright 1983,
 Carnegie Mellon University). Gaussian is a federally registered
 trademark of Gaussian, Inc.
  
 This software contains proprietary and confidential information,
 including trade secrets, belonging to Gaussian, Inc.
  
 This software is provided under written license and may be
 used, copied, transmitted, or stored only in accord with that
 written license.
  
 The following legend is applicable only to US Government
 contracts under FAR:
  
                    RESTRICTED RIGHTS LEGEND
  
 Use, reproduction and disclosure by the US Government is
 subject to restrictions as set forth in subparagraphs (a)
 and (c) of the Commercial Computer Software - Restricted
 Rights clause in FAR 52.227-19.
  
 Gaussian, Inc.
 340 Quinnipiac St., Bldg. 40, Wallingford CT 06492
  
  
 ---------------------------------------------------------------
 Warning -- This program may not be used in any manner that
 competes with the business of Gaussian, Inc. or will provide
 assistance to any competitor of Gaussian, Inc.  The licensee
 of this program is prohibited from giving any competitor of
 Gaussian, Inc. access to this program.  By using this program,
 the user acknowledges that Gaussian, Inc. is engaged in the
 business of creating and licensing software in the field of
 computational chemistry and represents and warrants to the
 licensee that it is not a competitor of Gaussian, Inc. and that
 it will not use this program in any manner prohibited above.
 ---------------------------------------------------------------
  

 Cite this work as:
 Gaussian 09, Revision B.01,
 M. J. Frisch, G. W. Trucks, H. B. Schlegel, G. E. Scuseria, 
 M. A. Robb, J. R. Cheeseman, G. Scalmani, V. Barone, B. Mennucci, 
 G. A. Petersson, H. Nakatsuji, M. Caricato, X. Li, H. P. Hratchian, 
 A. F. Izmaylov, J. Bloino, G. Zheng, J. L. Sonnenberg, M. Hada, 
 M. Ehara, K. Toyota, R. Fukuda, J. Hasegawa, M. Ishida, T. Nakajima, 
 Y. Honda, O. Kitao, H. Nakai, T. Vreven, J. A. Montgomery, Jr., 
 J. E. Peralta, F. Ogliaro, M. Bearpark, J. J. Heyd, E. Brothers, 
 K. N. Kudin, V. N. Staroverov, T. Keith, R. Kobayashi, J. Normand, 
 K. Raghavachari, A. Rendell, J. C. Burant, S. S. Iyengar, J. Tomasi, 
 M. Cossi, N. Rega, J. M. Millam, M. Klene, J. E. Knox, J. B. Cross, 
 V. Bakken, C. Adamo, J. Jaramillo, R. Gomperts, R. E. Stratmann, 
 O. Yazyev, A. J. Austin, R. Cammi, C. Pomelli, J. W. Ochterski, 
 R. L. Martin, K. Morokuma, V. G. Zakrzewski, G. A. Voth, 
 P. Salvador, J. J. Dannenberg, S. Dapprich, A. D. Daniels, 
 O. Farkas, J. B. Foresman, J. V. Ortiz, J. Cioslowski, 
 and D. J. Fox, Gaussian, Inc., Wallingford CT, 2010.
 
 ******************************************
 Gaussian 09:  IA32W-G09RevB.01 12-Aug-2010
                29-Sep-2023 
 ******************************************
 %nprocshared=6
 Will use up to    6 processors via shared memory.
 %chk=DPP-SUB-7-CATION.chk
 ----------------------------------------------------
 # opt=tight freq b3lyp/6-31+g(d,p) geom=connectivity
 ----------------------------------------------------
 1/7=10,14=-1,18=20,19=15,26=3,38=1,57=2/1,3;
 2/9=110,12=2,17=6,18=5,40=1/2;
 3/5=1,6=6,7=111,11=2,16=1,25=1,30=1,71=1,74=-5/1,2,3;
 4//1;
 5/5=2,38=5/2;
 6/7=2,8=2,9=2,10=2,28=1/1;
 7//1,2,3,16;
 1/7=10,14=-1,18=20,19=15/3(2);
 2/9=110/2;
 99//99;
 2/9=110/2;
 3/5=1,6=6,7=111,11=2,16=1,25=1,30=1,71=1,74=-5/1,2,3;
 4/5=5,16=3/1;
 5/5=2,38=5/2;
 7//1,2,3,16;
 1/7=10,14=-1,18=20,19=15/3(-5);
 2/9=110/2;
 6/7=2,8=2,9=2,10=2,19=2,28=1/1;
 99/9=1/99;
 -------
 Energy:
 -------
 Symbolic Z-matrix:
 Charge =  1 Multiplicity = 2
 N                     1.62671   1.35843  -0.69949 
 C                     0.27913   1.80035  -0.69247 
 C                     1.74551  -0.01481  -0.6703 
 C                     0.47449  -0.54715  -0.65438 
 C                    -0.4745    0.54716  -0.65437 
 C                    -1.74552   0.01482  -0.67032 
 C                    -0.27913  -1.80034  -0.6925 
 N                    -1.62672  -1.35842  -0.69954 
 O                    -0.04349   2.98382  -0.72909 
 O                     0.04348  -2.98381  -0.72914 
 H                    -2.43526  -1.97467  -0.69755 
 H                     2.43525   1.97468  -0.69752 
 C                    -4.25036  -0.13476  -0.1428 
 C                    -5.27663   0.54154   0.66369 
 C                    -5.18107   1.85757   0.97675 
 H                    -5.93787   2.34069   1.58669 
 C                    -4.03998   2.63632   0.52037 
 H                    -3.98112   3.67682   0.82598 
 C                    -3.06267   2.11648  -0.24458 
 H                    -2.21155   2.71591  -0.55231 
 C                    -3.10474   0.68535  -0.73851 
 N                    -4.38733  -1.39439  -0.36595 
 C                     5.27663  -0.54154   0.66369 
 C                     4.25036   0.13475  -0.1428 
 C                     3.10473  -0.68535  -0.7385 
 C                     3.06266  -2.11648  -0.24455 
 H                     2.21154  -2.7159   -0.55229 
 C                     4.03997  -2.63631   0.52039 
 H                     3.9811   -3.67682   0.82601 
 C                     5.18107  -1.85757   0.97676 
 H                     5.93787  -2.34069   1.5867 
 N                     4.38734   1.39439  -0.36596 
 C                     5.56785   1.97024   0.23011 
 H                     5.28953   2.75387   0.94179 
 H                     6.20606   2.41033  -0.5425 
 C                    -5.56782  -1.97025   0.23013 
 H                    -6.20604  -2.41036  -0.54246 
 H                    -5.28949  -2.75386   0.94182 
 S                     6.51323   0.62679   1.12873 
 S                    -6.51322  -0.6268    1.12875 
 H                     3.34403  -0.73869  -1.81824 
 H                    -3.34404   0.73868  -1.81825 
 

 GradGradGradGradGradGradGradGradGradGradGradGradGradGradGradGradGradGrad
 Berny optimization.
 Initialization pass.
                           ----------------------------
                           !    Initial Parameters    !
                           ! (Angstroms and Degrees)  !
 --------------------------                            --------------------------
 ! Name  Definition              Value          Derivative Info.                !
 --------------------------------------------------------------------------------
 ! R1    R(1,2)                  1.4182         estimate D2E/DX2                !
 ! R2    R(1,3)                  1.3787         estimate D2E/DX2                !
 ! R3    R(1,12)                 1.0166         estimate D2E/DX2                !
 ! R4    R(2,5)                  1.4628         estimate D2E/DX2                !
 ! R5    R(2,9)                  1.2272         estimate D2E/DX2                !
 ! R6    R(3,4)                  1.3781         estimate D2E/DX2                !
 ! R7    R(3,25)                 1.5172         estimate D2E/DX2                !
 ! R8    R(4,5)                  1.4485         estimate D2E/DX2                !
 ! R9    R(4,7)                  1.4628         estimate D2E/DX2                !
 ! R10   R(5,6)                  1.3781         estimate D2E/DX2                !
 ! R11   R(6,8)                  1.3787         estimate D2E/DX2                !
 ! R12   R(6,21)                 1.5172         estimate D2E/DX2                !
 ! R13   R(7,8)                  1.4182         estimate D2E/DX2                !
 ! R14   R(7,10)                 1.2272         estimate D2E/DX2                !
 ! R15   R(8,11)                 1.0166         estimate D2E/DX2                !
 ! R16   R(11,22)                2.0633         estimate D2E/DX2                !
 ! R17   R(12,32)                2.0633         estimate D2E/DX2                !
 ! R18   R(13,14)                1.47           estimate D2E/DX2                !
 ! R19   R(13,21)                1.5297         estimate D2E/DX2                !
 ! R20   R(13,22)                1.2866         estimate D2E/DX2                !
 ! R21   R(14,15)                1.3561         estimate D2E/DX2                !
 ! R22   R(14,40)                1.7636         estimate D2E/DX2                !
 ! R23   R(15,16)                1.0854         estimate D2E/DX2                !
 ! R24   R(15,17)                1.4549         estimate D2E/DX2                !
 ! R25   R(17,18)                1.0861         estimate D2E/DX2                !
 ! R26   R(17,19)                1.3455         estimate D2E/DX2                !
 ! R27   R(19,20)                1.0855         estimate D2E/DX2                !
 ! R28   R(19,21)                1.5146         estimate D2E/DX2                !
 ! R29   R(21,42)                1.1072         estimate D2E/DX2                !
 ! R30   R(22,36)                1.4424         estimate D2E/DX2                !
 ! R31   R(23,24)                1.47           estimate D2E/DX2                !
 ! R32   R(23,30)                1.3561         estimate D2E/DX2                !
 ! R33   R(23,39)                1.7636         estimate D2E/DX2                !
 ! R34   R(24,25)                1.5297         estimate D2E/DX2                !
 ! R35   R(24,32)                1.2866         estimate D2E/DX2                !
 ! R36   R(25,26)                1.5146         estimate D2E/DX2                !
 ! R37   R(25,41)                1.1072         estimate D2E/DX2                !
 ! R38   R(26,27)                1.0855         estimate D2E/DX2                !
 ! R39   R(26,28)                1.3455         estimate D2E/DX2                !
 ! R40   R(28,29)                1.0861         estimate D2E/DX2                !
 ! R41   R(28,30)                1.4549         estimate D2E/DX2                !
 ! R42   R(30,31)                1.0854         estimate D2E/DX2                !
 ! R43   R(32,33)                1.4424         estimate D2E/DX2                !
 ! R44   R(33,34)                1.0945         estimate D2E/DX2                !
 ! R45   R(33,35)                1.0945         estimate D2E/DX2                !
 ! R46   R(33,39)                1.8725         estimate D2E/DX2                !
 ! R47   R(36,37)                1.0945         estimate D2E/DX2                !
 ! R48   R(36,38)                1.0945         estimate D2E/DX2                !
 ! R49   R(36,40)                1.8725         estimate D2E/DX2                !
 ! A1    A(2,1,3)              113.088          estimate D2E/DX2                !
 ! A2    A(2,1,12)             124.529          estimate D2E/DX2                !
 ! A3    A(3,1,12)             122.3584         estimate D2E/DX2                !
 ! A4    A(1,2,5)              102.8681         estimate D2E/DX2                !
 ! A5    A(1,2,9)              123.3768         estimate D2E/DX2                !
 ! A6    A(5,2,9)              133.7492         estimate D2E/DX2                !
 ! A7    A(1,3,4)              107.7901         estimate D2E/DX2                !
 ! A8    A(1,3,25)             121.0961         estimate D2E/DX2                !
 ! A9    A(4,3,25)             131.0024         estimate D2E/DX2                !
 ! A10   A(3,4,5)              108.2057         estimate D2E/DX2                !
 ! A11   A(3,4,7)              143.6853         estimate D2E/DX2                !
 ! A12   A(5,4,7)              108.0405         estimate D2E/DX2                !
 ! A13   A(2,5,4)              108.0405         estimate D2E/DX2                !
 ! A14   A(2,5,6)              143.6853         estimate D2E/DX2                !
 ! A15   A(4,5,6)              108.2057         estimate D2E/DX2                !
 ! A16   A(5,6,8)              107.7901         estimate D2E/DX2                !
 ! A17   A(5,6,21)             131.0027         estimate D2E/DX2                !
 ! A18   A(8,6,21)             121.0958         estimate D2E/DX2                !
 ! A19   A(4,7,8)              102.8682         estimate D2E/DX2                !
 ! A20   A(4,7,10)             133.7491         estimate D2E/DX2                !
 ! A21   A(8,7,10)             123.3769         estimate D2E/DX2                !
 ! A22   A(6,8,7)              113.0879         estimate D2E/DX2                !
 ! A23   A(6,8,11)             122.3579         estimate D2E/DX2                !
 ! A24   A(7,8,11)             124.5295         estimate D2E/DX2                !
 ! A25   A(14,13,21)           119.3305         estimate D2E/DX2                !
 ! A26   A(14,13,22)           118.1159         estimate D2E/DX2                !
 ! A27   A(21,13,22)           122.4864         estimate D2E/DX2                !
 ! A28   A(13,14,15)           121.5945         estimate D2E/DX2                !
 ! A29   A(13,14,40)           109.232          estimate D2E/DX2                !
 ! A30   A(15,14,40)           129.1538         estimate D2E/DX2                !
 ! A31   A(14,15,16)           120.8322         estimate D2E/DX2                !
 ! A32   A(14,15,17)           120.1507         estimate D2E/DX2                !
 ! A33   A(16,15,17)           119.0034         estimate D2E/DX2                !
 ! A34   A(15,17,18)           117.8421         estimate D2E/DX2                !
 ! A35   A(15,17,19)           122.765          estimate D2E/DX2                !
 ! A36   A(18,17,19)           119.3894         estimate D2E/DX2                !
 ! A37   A(17,19,20)           121.1517         estimate D2E/DX2                !
 ! A38   A(17,19,21)           122.0244         estimate D2E/DX2                !
 ! A39   A(20,19,21)           116.8143         estimate D2E/DX2                !
 ! A40   A(6,21,13)            114.6147         estimate D2E/DX2                !
 ! A41   A(6,21,19)            112.2148         estimate D2E/DX2                !
 ! A42   A(6,21,42)            104.9955         estimate D2E/DX2                !
 ! A43   A(13,21,19)           113.6035         estimate D2E/DX2                !
 ! A44   A(13,21,42)           104.1064         estimate D2E/DX2                !
 ! A45   A(19,21,42)           106.1722         estimate D2E/DX2                !
 ! A46   A(13,22,36)           113.9746         estimate D2E/DX2                !
 ! A47   A(24,23,30)           121.5945         estimate D2E/DX2                !
 ! A48   A(24,23,39)           109.232          estimate D2E/DX2                !
 ! A49   A(30,23,39)           129.1537         estimate D2E/DX2                !
 ! A50   A(23,24,25)           119.3306         estimate D2E/DX2                !
 ! A51   A(23,24,32)           118.1159         estimate D2E/DX2                !
 ! A52   A(25,24,32)           122.4863         estimate D2E/DX2                !
 ! A53   A(3,25,24)            114.6148         estimate D2E/DX2                !
 ! A54   A(3,25,26)            112.2147         estimate D2E/DX2                !
 ! A55   A(3,25,41)            104.9955         estimate D2E/DX2                !
 ! A56   A(24,25,26)           113.6034         estimate D2E/DX2                !
 ! A57   A(24,25,41)           104.1065         estimate D2E/DX2                !
 ! A58   A(26,25,41)           106.1721         estimate D2E/DX2                !
 ! A59   A(25,26,27)           116.8142         estimate D2E/DX2                !
 ! A60   A(25,26,28)           122.0244         estimate D2E/DX2                !
 ! A61   A(27,26,28)           121.1517         estimate D2E/DX2                !
 ! A62   A(26,28,29)           119.3894         estimate D2E/DX2                !
 ! A63   A(26,28,30)           122.765          estimate D2E/DX2                !
 ! A64   A(29,28,30)           117.8421         estimate D2E/DX2                !
 ! A65   A(23,30,28)           120.1506         estimate D2E/DX2                !
 ! A66   A(23,30,31)           120.8321         estimate D2E/DX2                !
 ! A67   A(28,30,31)           119.0035         estimate D2E/DX2                !
 ! A68   A(24,32,33)           113.9747         estimate D2E/DX2                !
 ! A69   A(32,33,34)           110.2683         estimate D2E/DX2                !
 ! A70   A(32,33,35)           110.2463         estimate D2E/DX2                !
 ! A71   A(32,33,39)           108.9719         estimate D2E/DX2                !
 ! A72   A(34,33,35)           108.6255         estimate D2E/DX2                !
 ! A73   A(34,33,39)           109.2692         estimate D2E/DX2                !
 ! A74   A(35,33,39)           109.4423         estimate D2E/DX2                !
 ! A75   A(22,36,37)           110.2463         estimate D2E/DX2                !
 ! A76   A(22,36,38)           110.2682         estimate D2E/DX2                !
 ! A77   A(22,36,40)           108.9719         estimate D2E/DX2                !
 ! A78   A(37,36,38)           108.6254         estimate D2E/DX2                !
 ! A79   A(37,36,40)           109.4423         estimate D2E/DX2                !
 ! A80   A(38,36,40)           109.2693         estimate D2E/DX2                !
 ! A81   A(23,39,33)            89.6985         estimate D2E/DX2                !
 ! A82   A(14,40,36)            89.6985         estimate D2E/DX2                !
 ! D1    D(3,1,2,5)              0.0263         estimate D2E/DX2                !
 ! D2    D(3,1,2,9)           -179.2048         estimate D2E/DX2                !
 ! D3    D(12,1,2,5)          -178.2033         estimate D2E/DX2                !
 ! D4    D(12,1,2,9)             2.5656         estimate D2E/DX2                !
 ! D5    D(2,1,3,4)              0.5195         estimate D2E/DX2                !
 ! D6    D(2,1,3,25)           177.0833         estimate D2E/DX2                !
 ! D7    D(12,1,3,4)           178.7929         estimate D2E/DX2                !
 ! D8    D(12,1,3,25)           -4.6434         estimate D2E/DX2                !
 ! D9    D(1,2,5,4)             -0.5363         estimate D2E/DX2                !
 ! D10   D(1,2,5,6)           -176.8968         estimate D2E/DX2                !
 ! D11   D(9,2,5,4)            178.5747         estimate D2E/DX2                !
 ! D12   D(9,2,5,6)              2.2143         estimate D2E/DX2                !
 ! D13   D(1,3,4,5)             -0.8441         estimate D2E/DX2                !
 ! D14   D(1,3,4,7)            175.5134         estimate D2E/DX2                !
 ! D15   D(25,3,4,5)          -176.9445         estimate D2E/DX2                !
 ! D16   D(25,3,4,7)            -0.587          estimate D2E/DX2                !
 ! D17   D(1,3,25,24)           29.6794         estimate D2E/DX2                !
 ! D18   D(1,3,25,26)          161.1964         estimate D2E/DX2                !
 ! D19   D(1,3,25,41)          -83.9151         estimate D2E/DX2                !
 ! D20   D(4,3,25,24)         -154.6577         estimate D2E/DX2                !
 ! D21   D(4,3,25,26)          -23.1407         estimate D2E/DX2                !
 ! D22   D(4,3,25,41)           91.7479         estimate D2E/DX2                !
 ! D23   D(3,4,5,2)              0.8727         estimate D2E/DX2                !
 ! D24   D(3,4,5,6)            178.6046         estimate D2E/DX2                !
 ! D25   D(7,4,5,2)           -176.8596         estimate D2E/DX2                !
 ! D26   D(7,4,5,6)              0.8723         estimate D2E/DX2                !
 ! D27   D(3,4,7,8)           -176.8968         estimate D2E/DX2                !
 ! D28   D(3,4,7,10)             2.2144         estimate D2E/DX2                !
 ! D29   D(5,4,7,8)             -0.5358         estimate D2E/DX2                !
 ! D30   D(5,4,7,10)           178.5754         estimate D2E/DX2                !
 ! D31   D(2,5,6,8)            175.5129         estimate D2E/DX2                !
 ! D32   D(2,5,6,21)            -0.5877         estimate D2E/DX2                !
 ! D33   D(4,5,6,8)             -0.8441         estimate D2E/DX2                !
 ! D34   D(4,5,6,21)          -176.9446         estimate D2E/DX2                !
 ! D35   D(5,6,8,7)              0.5199         estimate D2E/DX2                !
 ! D36   D(5,6,8,11)           178.7903         estimate D2E/DX2                !
 ! D37   D(21,6,8,7)           177.0838         estimate D2E/DX2                !
 ! D38   D(21,6,8,11)           -4.6458         estimate D2E/DX2                !
 ! D39   D(5,6,21,13)         -154.6557         estimate D2E/DX2                !
 ! D40   D(5,6,21,19)          -23.1387         estimate D2E/DX2                !
 ! D41   D(5,6,21,42)           91.75           estimate D2E/DX2                !
 ! D42   D(8,6,21,13)           29.6812         estimate D2E/DX2                !
 ! D43   D(8,6,21,19)          161.1982         estimate D2E/DX2                !
 ! D44   D(8,6,21,42)          -83.9131         estimate D2E/DX2                !
 ! D45   D(4,7,8,6)              0.0257         estimate D2E/DX2                !
 ! D46   D(4,7,8,11)          -178.2009         estimate D2E/DX2                !
 ! D47   D(10,7,8,6)          -179.2055         estimate D2E/DX2                !
 ! D48   D(10,7,8,11)            2.5679         estimate D2E/DX2                !
 ! D49   D(21,13,14,15)         -4.9753         estimate D2E/DX2                !
 ! D50   D(21,13,14,40)        176.5022         estimate D2E/DX2                !
 ! D51   D(22,13,14,15)        177.9303         estimate D2E/DX2                !
 ! D52   D(22,13,14,40)         -0.5922         estimate D2E/DX2                !
 ! D53   D(14,13,21,6)         139.2122         estimate D2E/DX2                !
 ! D54   D(14,13,21,19)          8.366          estimate D2E/DX2                !
 ! D55   D(14,13,21,42)       -106.6716         estimate D2E/DX2                !
 ! D56   D(22,13,21,6)         -43.826          estimate D2E/DX2                !
 ! D57   D(22,13,21,19)       -174.6722         estimate D2E/DX2                !
 ! D58   D(22,13,21,42)         70.2901         estimate D2E/DX2                !
 ! D59   D(14,13,22,36)         -0.0051         estimate D2E/DX2                !
 ! D60   D(21,13,22,36)       -177.002          estimate D2E/DX2                !
 ! D61   D(13,14,15,16)       -178.9954         estimate D2E/DX2                !
 ! D62   D(13,14,15,17)         -0.3599         estimate D2E/DX2                !
 ! D63   D(40,14,15,16)         -0.7945         estimate D2E/DX2                !
 ! D64   D(40,14,15,17)        177.841          estimate D2E/DX2                !
 ! D65   D(13,14,40,36)          0.7224         estimate D2E/DX2                !
 ! D66   D(15,14,40,36)       -177.6546         estimate D2E/DX2                !
 ! D67   D(14,15,17,18)       -177.5924         estimate D2E/DX2                !
 ! D68   D(14,15,17,19)          1.7271         estimate D2E/DX2                !
 ! D69   D(16,15,17,18)          1.0679         estimate D2E/DX2                !
 ! D70   D(16,15,17,19)       -179.6125         estimate D2E/DX2                !
 ! D71   D(15,17,19,20)       -178.6393         estimate D2E/DX2                !
 ! D72   D(15,17,19,21)          2.5239         estimate D2E/DX2                !
 ! D73   D(18,17,19,20)          0.6701         estimate D2E/DX2                !
 ! D74   D(18,17,19,21)       -178.1667         estimate D2E/DX2                !
 ! D75   D(17,19,21,6)        -139.3424         estimate D2E/DX2                !
 ! D76   D(17,19,21,13)         -7.3187         estimate D2E/DX2                !
 ! D77   D(17,19,21,42)        106.4881         estimate D2E/DX2                !
 ! D78   D(20,19,21,6)          41.773          estimate D2E/DX2                !
 ! D79   D(20,19,21,13)        173.7967         estimate D2E/DX2                !
 ! D80   D(20,19,21,42)        -72.3965         estimate D2E/DX2                !
 ! D81   D(13,22,36,37)        120.6941         estimate D2E/DX2                !
 ! D82   D(13,22,36,38)       -119.3661         estimate D2E/DX2                !
 ! D83   D(13,22,36,40)          0.5644         estimate D2E/DX2                !
 ! D84   D(30,23,24,25)         -4.9752         estimate D2E/DX2                !
 ! D85   D(30,23,24,32)        177.9304         estimate D2E/DX2                !
 ! D86   D(39,23,24,25)        176.5023         estimate D2E/DX2                !
 ! D87   D(39,23,24,32)         -0.592          estimate D2E/DX2                !
 ! D88   D(24,23,30,28)         -0.3599         estimate D2E/DX2                !
 ! D89   D(24,23,30,31)       -178.9956         estimate D2E/DX2                !
 ! D90   D(39,23,30,28)        177.8409         estimate D2E/DX2                !
 ! D91   D(39,23,30,31)         -0.7948         estimate D2E/DX2                !
 ! D92   D(24,23,39,33)          0.7221         estimate D2E/DX2                !
 ! D93   D(30,23,39,33)       -177.6548         estimate D2E/DX2                !
 ! D94   D(23,24,25,3)         139.212          estimate D2E/DX2                !
 ! D95   D(23,24,25,26)          8.3658         estimate D2E/DX2                !
 ! D96   D(23,24,25,41)       -106.6718         estimate D2E/DX2                !
 ! D97   D(32,24,25,3)         -43.8263         estimate D2E/DX2                !
 ! D98   D(32,24,25,26)       -174.6724         estimate D2E/DX2                !
 ! D99   D(32,24,25,41)         70.29           estimate D2E/DX2                !
 ! D100  D(23,24,32,33)         -0.005          estimate D2E/DX2                !
 ! D101  D(25,24,32,33)       -177.0018         estimate D2E/DX2                !
 ! D102  D(3,25,26,27)          41.7735         estimate D2E/DX2                !
 ! D103  D(3,25,26,28)        -139.3422         estimate D2E/DX2                !
 ! D104  D(24,25,26,27)        173.7973         estimate D2E/DX2                !
 ! D105  D(24,25,26,28)         -7.3184         estimate D2E/DX2                !
 ! D106  D(41,25,26,27)        -72.3959         estimate D2E/DX2                !
 ! D107  D(41,25,26,28)        106.4884         estimate D2E/DX2                !
 ! D108  D(25,26,28,29)       -178.1667         estimate D2E/DX2                !
 ! D109  D(25,26,28,30)          2.5238         estimate D2E/DX2                !
 ! D110  D(27,26,28,29)          0.6698         estimate D2E/DX2                !
 ! D111  D(27,26,28,30)       -178.6397         estimate D2E/DX2                !
 ! D112  D(26,28,30,23)          1.7271         estimate D2E/DX2                !
 ! D113  D(26,28,30,31)       -179.6123         estimate D2E/DX2                !
 ! D114  D(29,28,30,23)       -177.5925         estimate D2E/DX2                !
 ! D115  D(29,28,30,31)          1.0681         estimate D2E/DX2                !
 ! D116  D(24,32,33,34)       -119.3663         estimate D2E/DX2                !
 ! D117  D(24,32,33,35)        120.6937         estimate D2E/DX2                !
 ! D118  D(24,32,33,39)          0.5641         estimate D2E/DX2                !
 ! D119  D(32,33,39,23)         -0.7433         estimate D2E/DX2                !
 ! D120  D(34,33,39,23)        119.8032         estimate D2E/DX2                !
 ! D121  D(35,33,39,23)       -121.368          estimate D2E/DX2                !
 ! D122  D(22,36,40,14)         -0.7437         estimate D2E/DX2                !
 ! D123  D(37,36,40,14)       -121.3684         estimate D2E/DX2                !
 ! D124  D(38,36,40,14)        119.8028         estimate D2E/DX2                !
 --------------------------------------------------------------------------------
 Trust Radius=3.00D-01 FncErr=1.00D-07 GrdErr=1.00D-06
 Number of steps in this run=    252 maximum allowed number of steps=    252.
 GradGradGradGradGradGradGradGradGradGradGradGradGradGradGradGradGradGrad

                          Input orientation:                          
 ---------------------------------------------------------------------
 Center     Atomic      Atomic             Coordinates (Angstroms)
 Number     Number       Type             X           Y           Z
 ---------------------------------------------------------------------
      1          7           0        1.626712    1.358431   -0.699493
      2          6           0        0.279126    1.800347   -0.692468
      3          6           0        1.745512   -0.014814   -0.670304
      4          6           0        0.474490   -0.547147   -0.654376
      5          6           0       -0.474496    0.547155   -0.654368
      6          6           0       -1.745517    0.014822   -0.670321
      7          6           0       -0.279133   -1.800339   -0.692504
      8          7           0       -1.626718   -1.358424   -0.699541
      9          8           0       -0.043487    2.983817   -0.729089
     10          8           0        0.043482   -2.983808   -0.729135
     11          1           0       -2.435260   -1.974665   -0.697547
     12          1           0        2.435248    1.974678   -0.697515
     13          6           0       -4.250359   -0.134757   -0.142798
     14          6           0       -5.276631    0.541537    0.663689
     15          6           0       -5.181074    1.857567    0.976749
     16          1           0       -5.937873    2.340688    1.586690
     17          6           0       -4.039981    2.636318    0.520368
     18          1           0       -3.981121    3.676823    0.825983
     19          6           0       -3.062669    2.116484   -0.244575
     20          1           0       -2.211552    2.715907   -0.552310
     21          6           0       -3.104741    0.685354   -0.738507
     22          7           0       -4.387326   -1.394392   -0.365951
     23          6           0        5.276632   -0.541541    0.663689
     24          6           0        4.250362    0.134754   -0.142798
     25          6           0        3.104734   -0.685353   -0.738495
     26          6           0        3.062657   -2.116480   -0.244554
     27          1           0        2.211539   -2.715902   -0.552287
     28          6           0        4.039968   -2.636314    0.520389
     29          1           0        3.981103   -3.676817    0.826011
     30          6           0        5.181068   -1.857568    0.976760
     31          1           0        5.937869   -2.340689    1.586699
     32          7           0        4.387338    1.394386   -0.365963
     33          6           0        5.567845    1.970240    0.230108
     34          1           0        5.289526    2.753866    0.941788
     35          1           0        6.206061    2.410332   -0.542500
     36          6           0       -5.567824   -1.970250    0.230134
     37          1           0       -6.206040   -2.410360   -0.542464
     38          1           0       -5.289492   -2.753864    0.941822
     39         16           0        6.513235    0.626794    1.128733
     40         16           0       -6.513224   -0.626803    1.128745
     41          1           0        3.344028   -0.738687   -1.818235
     42          1           0       -3.344044    0.738678   -1.818246
 ---------------------------------------------------------------------
                    Distance matrix (angstroms):
                    1          2          3          4          5
     1  N    0.000000
     2  C    1.418213   0.000000
     3  C    1.378683   2.333578   0.000000
     4  C    2.227303   2.355917   1.378089   0.000000
     5  C    2.252838   1.462836   2.290087   1.448472   0.000000
     6  C    3.630160   2.699587   3.491155   2.290086   1.378088
     7  C    3.689190   3.643706   2.699589   1.462837   2.355918
     8  N    4.238645   3.689190   3.630162   2.252839   2.227305
     9  O    2.330734   1.227201   3.492243   3.569536   2.475616
    10  O    4.621962   4.790095   3.422761   2.475616   3.569537
    11  H    5.254441   4.649584   4.617425   3.241345   3.194689
    12  H    1.016609   2.163164   2.105838   3.194688   3.241341
    13  C    6.089293   4.956107   6.020226   4.770322   3.870898
    14  C    7.083906   5.855783   7.169348   5.999827   4.979740
    15  C    7.028860   5.709934   7.361806   6.358351   5.150689
    16  H    7.963316   6.643614   8.347264   7.381082   6.171514
    17  C    5.935694   4.563387   6.474421   5.647559   4.296195
    18  H    6.256981   4.896587   6.975771   6.315525   4.927746
    19  C    4.771990   3.386465   5.276579   4.446837   3.054401
    20  H    4.073902   2.657324   4.809274   4.227619   2.780515
    21  C    4.779247   3.563129   4.901004   3.786427   2.635217
    22  N    6.622533   5.664693   6.293454   4.943508   4.377560
    23  C    4.334752   5.683192   3.811271   4.979748   5.999834
    24  C    2.948022   4.341319   2.564158   3.870906   4.770331
    25  C    2.522523   3.763626   1.517154   2.635215   3.786428
    26  C    3.787336   4.825993   2.516572   3.054402   4.446836
    27  H    4.118723   4.914303   2.743535   2.780514   4.227617
    28  C    4.823889   5.941289   3.681649   4.296199   5.647558
    29  H    5.764030   6.783048   4.543907   4.927749   6.315522
    30  C    5.077984   6.340008   4.232211   5.150697   6.358355
    31  H    6.123417   7.373205   5.299020   6.171525   7.381087
    32  N    2.780933   4.141113   3.009603   4.377569   4.943522
    33  C    4.095241   5.371272   4.400160   5.749940   6.270355
    34  H    4.249382   5.355754   4.777496   6.052190   6.375048
    35  H    4.701232   5.960128   5.078796   6.450589   6.936410
    36  C    7.981583   7.018221   7.623608   6.270338   5.749927
    37  H    8.693702   7.733688   8.305550   6.936394   6.450582
    38  H    8.212111   7.377076   7.719626   6.375024   6.052168
    39  S    5.268378   6.599857   5.136086   6.405002   7.212085
    40  S    8.575673   7.439348   8.474540   7.212074   6.404991
    41  H    2.932347   4.136142   2.096900   3.102500   4.193936
    42  H    5.132652   3.939781   5.271537   4.193941   3.102515
                    6          7          8          9         10
     6  C    0.000000
     7  C    2.333577   0.000000
     8  N    1.378685   1.418211   0.000000
     9  O    3.422761   4.790096   4.621964   0.000000
    10  O    3.492243   1.227201   2.330733   5.968259   0.000000
    11  H    2.105836   2.163169   1.016611   5.505281   2.676477
    12  H    4.617420   4.649585   5.254440   2.676469   5.505282
    13  C    2.564154   4.341310   2.948019   5.269441   5.186324
    14  C    3.811270   5.683188   4.334756   5.940569   6.532352
    15  C    4.232210   6.340008   5.077991   5.529297   7.324270
    16  H    5.299019   7.373206   6.123425   6.365551   8.336061
    17  C    3.681650   5.941293   4.823897   4.201650   7.058452
    18  H    4.543908   6.783054   5.764039   4.289926   7.935983
    19  C    2.516572   4.825994   3.787339   3.178440   5.991323
    20  H    2.743533   4.914303   4.118723   2.191696   6.132145
    21  C    1.517153   3.763621   2.522518   3.828093   4.834682
    22  N    3.009598   4.141096   2.780923   6.178149   4.721250
    23  C    7.169358   5.855797   7.083921   6.532354   5.940580
    24  C    6.020235   4.956116   6.089303   5.186332   5.269446
    25  C    4.901003   3.563126   4.779245   4.834686   3.828087
    26  C    5.276577   3.386468   4.771991   5.991322   3.178442
    27  H    4.809270   2.657323   4.073898   6.132145   2.191693
    28  C    6.474423   4.563398   5.935702   7.058447   4.201662
    29  H    6.975771   4.896598   6.256989   7.935975   4.289942
    30  C    7.361814   5.709949   7.028875   7.324268   5.529311
    31  H    8.347275   6.643633   7.963336   8.336058   6.365570
    32  N    6.293468   5.664702   6.622545   4.721267   6.178152
    33  C    7.623627   7.018236   7.981603   5.782253   7.482067
    34  H    7.719656   7.377104   8.212145   5.593365   7.951972
    35  H    8.305564   7.733692   8.693711   6.278579   8.192006
    36  C    4.400155   5.371255   4.095234   7.482058   5.782236
    37  H    5.078791   5.960106   4.701216   8.192010   6.278552
    38  H    4.777487   5.355738   4.249381   7.951949   5.593352
    39  S    8.474555   7.439364   8.575693   7.210941   7.638444
    40  S    5.136083   6.599850   5.268381   7.638431   7.210935
    41  H    5.271523   3.939755   5.132628   5.149615   4.137670
    42  H    2.096900   4.136131   2.932328   4.137703   5.149602
                   11         12         13         14         15
    11  H    0.000000
    12  H    6.270499   0.000000
    13  C    2.643405   7.032408   0.000000
    14  C    4.032075   7.961146   1.470044   0.000000
    15  C    5.002876   7.799054   2.467584   1.356124   0.000000
    16  H    6.009019   8.686812   3.459286   2.127467   1.085439
    17  C    5.031860   6.621903   2.857080   2.436791   1.454933
    18  H    6.053936   6.810884   3.941975   3.396278   2.184562
    19  C    4.163691   5.518365   2.547362   2.864791   2.458925
    20  H    4.698149   4.707787   3.528558   3.949841   3.448598
    21  C    2.743280   5.688191   1.529671   2.589197   2.937234
    22  N    2.063307   7.616304   1.286560   2.366187   3.606677
    23  C    7.961161   4.032084   9.569715  10.608695  10.733934
    24  C    7.032420   2.643420   8.504992   9.569717   9.652640
    25  C    5.688193   2.743293   7.399689   8.585957   8.835334
    26  C    5.518370   4.163699   7.577452   8.799641   9.232753
    27  H    4.707789   4.698157   6.970374   8.256040   8.826398
    28  C    6.621912   5.031865   8.684879   9.844709  10.267952
    29  H    6.810893   6.053940   9.013420  10.174797  10.705028
    30  C    7.799068   5.002883   9.652632  10.733927  11.008007
    31  H    8.686832   6.009025  10.566801  11.615687  11.900768
    32  N    7.616318   2.063328   8.774844   9.756015   9.673258
    33  C    8.970647   3.267058  10.048244  10.946773  10.775408
    34  H    9.204279   3.382507  10.026459  10.798862  10.508950
    35  H    9.691474   3.799060  10.769121  11.696132  11.501326
    36  C    3.267043   8.970627   2.289940   2.565509   3.919081
    37  H    3.799034   9.691463   3.027010   3.321491   4.644757
    38  H    3.382502   9.204246   3.019258   3.307142   4.612838
    39  S    9.496233   4.667114  10.865160  11.799342  11.759879
    40  S    4.667105   9.496214   2.641872   1.763649   2.823087
    41  H    6.015293   3.073149   7.800419   9.061715   9.339691
    42  H    3.073123   6.015310   2.095572   3.151787   3.526838
                   16         17         18         19         20
    16  H    0.000000
    17  C    2.196915   0.000000
    18  H    2.488536   1.086055   0.000000
    19  C    3.416226   1.345550   2.103404   0.000000
    20  H    4.312955   2.121350   2.440169   1.085545   0.000000
    21  C    4.021605   2.503138   3.487773   1.514553   2.226118
    22  N    4.490860   4.141598   5.225221   3.754424   4.654383
    23  C   11.615692   9.844725  10.174818   8.799658   8.256060
    24  C   10.566807   8.684895   9.013440   7.577469   6.970393
    25  C    9.814894   7.979047   8.466730   6.791988   6.313963
    26  C   10.209277   8.580307   9.182767   7.445643   7.159885
    27  H    9.826354   8.299298   9.006420   7.159882   7.004876
    28  C   11.201110   9.648120  10.212098   8.580309   8.299304
    29  H   11.626482  10.212095  10.838498   9.182767   9.006424
    30  C   11.900765  10.267962  10.705042   9.232765   8.826413
    31  H   12.765130  11.201123  11.626500  10.209292   9.826372
    32  N   10.550750   8.564326   8.755647   7.485904   6.732495
    33  C   11.591337   9.635260   9.718552   8.644795   7.854121
    34  H   11.253493   9.339760   9.317197   8.460075   7.648525
    35  H   12.329373  10.303501  10.356419   9.278171   8.423163
    36  C    4.534464   4.861996   5.895939   4.816902   5.816945
    37  H    5.213220   5.593781   6.623950   5.519224   6.498819
    38  H    5.175975   5.549141   6.563459   5.485122   6.451708
    39  S   12.576854  10.760049  10.932787   9.787905   9.127552
    40  S    3.057245   4.139446   5.002440   4.617138   5.701231
    41  H   10.355180   8.448865   8.952454   7.188475   6.663427
    42  H    4.570336   3.091032   4.003812   2.110441   2.606639
                   21         22         23         24         25
    21  C    0.000000
    22  N    2.471673   0.000000
    23  C    8.585968   9.756003   0.000000
    24  C    7.399701   8.774836   1.470043   0.000000
    25  C    6.358964   7.534752   2.589197   1.529671   0.000000
    26  C    6.791985   7.485880   2.864790   2.547362   1.514554
    27  H    6.313957   6.732468   3.949840   3.528558   2.226118
    28  C    7.979045   8.564301   2.436790   2.857079   2.503138
    29  H    8.466725   8.755618   3.396277   3.941975   3.487773
    30  C    8.835339   9.673240   1.356124   2.467584   2.937235
    31  H    9.814903  10.550733   2.127467   3.459286   4.021606
    32  N    7.534770   9.207172   2.366187   1.286560   2.471673
    33  C    8.820595  10.525277   2.565510   2.289941   3.749304
    34  H    8.807148  10.609415   3.307146   3.019261   4.407368
    35  H    9.471272  11.257306   3.321488   3.027008   4.386332
    36  C    3.749303   1.442396  10.946753  10.048229   8.820571
    37  H    4.386335   2.090710  11.696112  10.769108   9.471251
    38  H    4.407365   2.091014  10.798829  10.026432   8.807113
    39  S    9.797728  11.186666   1.763650   2.641872   4.101969
    40  S    4.101968   2.709751  11.799333  10.865154   9.797710
    41  H    6.691810   7.893853   3.151789   2.095574   1.107224
    42  H    1.107224   2.783449   9.061734   7.800439   6.691821
                   26         27         28         29         30
    26  C    0.000000
    27  H    1.085545   0.000000
    28  C    1.345549   2.121349   0.000000
    29  H    2.103403   2.440168   1.086055   0.000000
    30  C    2.458924   3.448597   1.454933   2.184561   0.000000
    31  H    3.416226   4.312955   2.196916   2.488537   1.085440
    32  N    3.754424   4.654383   4.141597   5.225220   3.606677
    33  C    4.816903   5.816946   4.861997   5.895940   3.919081
    34  H    5.485127   6.451715   5.549145   6.563464   4.612842
    35  H    5.519220   6.498813   5.593776   6.623945   4.644753
    36  C    8.644762   7.854086   9.635225   9.718511  10.775381
    37  H    9.278139   8.423128  10.303465  10.356376  11.501298
    38  H    8.460032   7.648481   9.339713   9.317145  10.508910
    39  S    4.617137   5.701231   4.139445   5.002439   2.823087
    40  S    9.787879   9.127524  10.760023  10.932755  11.759862
    41  H    2.110440   2.606633   3.091033   4.003812   3.526841
    42  H    7.188480   6.663428   8.448871   8.952456   9.339705
                   31         32         33         34         35
    31  H    0.000000
    32  N    4.490860   0.000000
    33  C    4.534464   1.442396   0.000000
    34  H    5.175978   2.091015   1.094541   0.000000
    35  H    5.213216   2.090709   1.094497   1.777966   0.000000
    36  C   11.591310  10.525272  11.812307  11.861946  12.586136
    37  H   12.329344  11.257304  12.586139  12.689376  13.315379
    38  H   11.253453  10.609398  11.861933  11.926890  12.689361
    39  S    3.057243   2.709751   1.872468   2.461066   2.463409
    40  S   12.576838  11.186671  12.389690  12.278794  13.183226
    41  H    4.570339   2.783449   4.059477   4.858047   4.442415
    42  H   10.355195   7.893880   9.226823   9.285327   9.778878
                   36         37         38         39         40
    36  C    0.000000
    37  H    1.094497   0.000000
    38  H    1.094541   1.777965   0.000000
    39  S   12.389677  13.183215  12.278768   0.000000
    40  S    1.872467   2.463408   2.461067  13.086640   0.000000
    41  H    9.226791   9.778849   9.285285   4.537955  10.288957
    42  H    4.059476   4.442418   4.858044  10.288982   4.537951
                   41         42
    41  H    0.000000
    42  H    6.849300   0.000000
 Stoichiometry    C20H14N4O2S2(1+,2)
 Framework group  C1[X(C20H14N4O2S2)]
 Deg. of freedom   120
 Full point group                 C1      NOp   1
 Largest Abelian subgroup         C1      NOp   1
 Largest concise Abelian subgroup C1      NOp   1
                         Standard orientation:                         
 ---------------------------------------------------------------------
 Center     Atomic      Atomic             Coordinates (Angstroms)
 Number     Number       Type             X           Y           Z
 ---------------------------------------------------------------------
      1          7           0        1.626712    1.358431   -0.699493
      2          6           0        0.279126    1.800347   -0.692468
      3          6           0        1.745512   -0.014814   -0.670304
      4          6           0        0.474490   -0.547147   -0.654376
      5          6           0       -0.474496    0.547155   -0.654368
      6          6           0       -1.745517    0.014822   -0.670321
      7          6           0       -0.279133   -1.800339   -0.692504
      8          7           0       -1.626718   -1.358424   -0.699541
      9          8           0       -0.043487    2.983817   -0.729089
     10          8           0        0.043482   -2.983808   -0.729135
     11          1           0       -2.435260   -1.974665   -0.697547
     12          1           0        2.435248    1.974678   -0.697515
     13          6           0       -4.250359   -0.134757   -0.142798
     14          6           0       -5.276631    0.541537    0.663689
     15          6           0       -5.181074    1.857567    0.976749
     16          1           0       -5.937873    2.340688    1.586690
     17          6           0       -4.039981    2.636318    0.520368
     18          1           0       -3.981121    3.676823    0.825983
     19          6           0       -3.062669    2.116484   -0.244575
     20          1           0       -2.211552    2.715907   -0.552310
     21          6           0       -3.104741    0.685354   -0.738507
     22          7           0       -4.387326   -1.394392   -0.365951
     23          6           0        5.276632   -0.541541    0.663689
     24          6           0        4.250362    0.134754   -0.142798
     25          6           0        3.104734   -0.685353   -0.738495
     26          6           0        3.062657   -2.116480   -0.244554
     27          1           0        2.211539   -2.715902   -0.552287
     28          6           0        4.039968   -2.636314    0.520389
     29          1           0        3.981103   -3.676817    0.826011
     30          6           0        5.181068   -1.857568    0.976760
     31          1           0        5.937869   -2.340689    1.586699
     32          7           0        4.387338    1.394386   -0.365963
     33          6           0        5.567845    1.970240    0.230108
     34          1           0        5.289526    2.753866    0.941788
     35          1           0        6.206061    2.410332   -0.542500
     36          6           0       -5.567824   -1.970250    0.230134
     37          1           0       -6.206040   -2.410360   -0.542464
     38          1           0       -5.289492   -2.753864    0.941822
     39         16           0        6.513235    0.626794    1.128733
     40         16           0       -6.513224   -0.626803    1.128745
     41          1           0        3.344028   -0.738687   -1.818235
     42          1           0       -3.344044    0.738678   -1.818246
 ---------------------------------------------------------------------
 Rotational constants (GHZ):      0.3945082      0.0697288      0.0625072
 Standard basis: 6-31+G(d,p) (6D, 7F)
 There are   610 symmetry adapted basis functions of A   symmetry.
 Integral buffers will be    262144 words long.
 Raffenetti 2 integral format.
 Two-electron integral symmetry is turned on.
   610 basis functions,  1042 primitive gaussians,   610 cartesian basis functions
   105 alpha electrons      104 beta electrons
       nuclear repulsion energy      2701.0474302595 Hartrees.
 NAtoms=   42 NActive=   42 NUniq=   42 SFac= 1.00D+00 NAtFMM=   50 NAOKFM=F Big=F
 One-electron integrals computed using PRISM.
 NBasis=   610 RedAO= T  NBF=   610
 NBsUse=   606 1.00D-06 NBFU=   606
 Harris functional with IExCor=  402 diagonalized for initial guess.
 ExpMin= 4.05D-02 ExpMax= 2.19D+04 ExpMxC= 3.30D+03 IAcc=2 IRadAn=         0 AccDes= 0.00D+00
 HarFok:  IExCor=  402 AccDes= 0.00D+00 IRadAn=         0 IDoV= 1
 ScaDFX=  1.000000  1.000000  1.000000  1.000000
 FoFCou: FMM=F IPFlag=           0 FMFlag=      100000 FMFlg1=           0
         NFxFlg=           0 DoJE=T BraDBF=F KetDBF=T FulRan=T
         Omega=  0.000000  0.000000  1.000000  0.000000  0.000000 ICntrl=     500 IOpCl=  0
         NMat0=    1 NMatS0=    1 NMatT0=    0 NMatD0=    1 NMtDS0=    0 NMtDT0=    0
         I1Cent=           4 NGrid=           0.
 Petite list used in FoFCou.
 Initial guess orbital symmetries:
 Alpha Orbitals:
       Occupied  (A) (A) (A) (A) (A) (A) (A) (A) (A) (A) (A) (A)
                 (A) (A) (A) (A) (A) (A) (A) (A) (A) (A) (A) (A)
                 (A) (A) (A) (A) (A) (A) (A) (A) (A) (A) (A) (A)
                 (A) (A) (A) (A) (A) (A) (A) (A) (A) (A) (A) (A)
                 (A) (A) (A) (A) (A) (A) (A) (A) (A) (A) (A) (A)
                 (A) (A) (A) (A) (A) (A) (A) (A) (A) (A) (A) (A)
                 (A) (A) (A) (A) (A) (A) (A) (A) (A) (A) (A) (A)
                 (A) (A) (A) (A) (A) (A) (A) (A) (A) (A) (A) (A)
                 (A) (A) (A) (A) (A) (A) (A) (A) (A)
       Virtual   (A) (A) (A) (A) (A) (A) (A) (A) (A) (A) (A) (A)
                 (A) (A) (A) (A) (A) (A) (A) (A) (A) (A) (A) (A)
                 (A) (A) (A) (A) (A) (A) (A) (A) (A) (A) (A) (A)
                 (A) (A) (A) (A) (A) (A) (A) (A) (A) (A) (A) (A)
                 (A) (A) (A) (A) (A) (A) (A) (A) (A) (A) (A) (A)
                 (A) (A) (A) (A) (A) (A) (A) (A) (A) (A) (A) (A)
                 (A) (A) (A) (A) (A) (A) (A) (A) (A) (A) (A) (A)
                 (A) (A) (A) (A) (A) (A) (A) (A) (A) (A) (A) (A)
                 (A) (A) (A) (A) (A) (A) (A) (A) (A) (A) (A) (A)
                 (A) (A) (A) (A) (A) (A) (A) (A) (A) (A) (A) (A)
                 (A) (A) (A) (A) (A) (A) (A) (A) (A) (A) (A) (A)
                 (A) (A) (A) (A) (A) (A) (A) (A) (A) (A) (A) (A)
                 (A) (A) (A) (A) (A) (A) (A) (A) (A) (A) (A) (A)
                 (A) (A) (A) (A) (A) (A) (A) (A) (A) (A) (A) (A)
                 (A) (A) (A) (A) (A) (A) (A) (A) (A) (A) (A) (A)
                 (A) (A) (A) (A) (A) (A) (A) (A) (A) (A) (A) (A)
                 (A) (A) (A) (A) (A) (A) (A) (A) (A) (A) (A) (A)
                 (A) (A) (A) (A) (A) (A) (A) (A) (A) (A) (A) (A)
                 (A) (A) (A) (A) (A) (A) (A) (A) (A) (A) (A) (A)
                 (A) (A) (A) (A) (A) (A) (A) (A) (A) (A) (A) (A)
                 (A) (A) (A) (A) (A) (A) (A) (A) (A) (A) (A) (A)
                 (A) (A) (A) (A) (A) (A) (A) (A) (A) (A) (A) (A)
                 (A) (A) (A) (A) (A) (A) (A) (A) (A) (A) (A) (A)
                 (A) (A) (A) (A) (A) (A) (A) (A) (A) (A) (A) (A)
                 (A) (A) (A) (A) (A) (A) (A) (A) (A) (A) (A) (A)
                 (A) (A) (A) (A) (A) (A) (A) (A) (A) (A) (A) (A)
                 (A) (A) (A) (A) (A) (A) (A) (A) (A) (A) (A) (A)
                 (A) (A) (A) (A) (A) (A) (A) (A) (A) (A) (A) (A)
                 (A) (A) (A) (A) (A) (A) (A) (A) (A) (A) (A) (A)
                 (A) (A) (A) (A) (A) (A) (A) (A) (A) (A) (A) (A)
                 (A) (A) (A) (A) (A) (A) (A) (A) (A) (A) (A) (A)
                 (A) (A) (A) (A) (A) (A) (A) (A) (A) (A) (A) (A)
                 (A) (A) (A) (A) (A) (A) (A) (A) (A) (A) (A) (A)
                 (A) (A) (A) (A) (A) (A) (A) (A) (A) (A) (A) (A)
                 (A) (A) (A) (A) (A) (A) (A) (A) (A) (A) (A) (A)
                 (A) (A) (A) (A) (A) (A) (A) (A) (A) (A) (A) (A)
                 (A) (A) (A) (A) (A) (A) (A) (A) (A) (A) (A) (A)
                 (A) (A) (A) (A) (A) (A) (A) (A) (A) (A) (A) (A)
                 (A) (A) (A) (A) (A) (A) (A) (A) (A) (A) (A) (A)
                 (A) (A) (A) (A) (A) (A) (A) (A) (A) (A) (A) (A)
                 (A) (A) (A) (A) (A) (A) (A) (A) (A) (A) (A) (A)
                 (A) (A) (A) (A) (A) (A) (A) (A) (A)
 Beta  Orbitals:
       Occupied  (A) (A) (A) (A) (A) (A) (A) (A) (A) (A) (A) (A)
                 (A) (A) (A) (A) (A) (A) (A) (A) (A) (A) (A) (A)
                 (A) (A) (A) (A) (A) (A) (A) (A) (A) (A) (A) (A)
                 (A) (A) (A) (A) (A) (A) (A) (A) (A) (A) (A) (A)
                 (A) (A) (A) (A) (A) (A) (A) (A) (A) (A) (A) (A)
                 (A) (A) (A) (A) (A) (A) (A) (A) (A) (A) (A) (A)
                 (A) (A) (A) (A) (A) (A) (A) (A) (A) (A) (A) (A)
                 (A) (A) (A) (A) (A) (A) (A) (A) (A) (A) (A) (A)
                 (A) (A) (A) (A) (A) (A) (A) (A)
       Virtual   (A) (A) (A) (A) (A) (A) (A) (A) (A) (A) (A) (A)
                 (A) (A) (A) (A) (A) (A) (A) (A) (A) (A) (A) (A)
                 (A) (A) (A) (A) (A) (A) (A) (A) (A) (A) (A) (A)
                 (A) (A) (A) (A) (A) (A) (A) (A) (A) (A) (A) (A)
                 (A) (A) (A) (A) (A) (A) (A) (A) (A) (A) (A) (A)
                 (A) (A) (A) (A) (A) (A) (A) (A) (A) (A) (A) (A)
                 (A) (A) (A) (A) (A) (A) (A) (A) (A) (A) (A) (A)
                 (A) (A) (A) (A) (A) (A) (A) (A) (A) (A) (A) (A)
                 (A) (A) (A) (A) (A) (A) (A) (A) (A) (A) (A) (A)
                 (A) (A) (A) (A) (A) (A) (A) (A) (A) (A) (A) (A)
                 (A) (A) (A) (A) (A) (A) (A) (A) (A) (A) (A) (A)
                 (A) (A) (A) (A) (A) (A) (A) (A) (A) (A) (A) (A)
                 (A) (A) (A) (A) (A) (A) (A) (A) (A) (A) (A) (A)
                 (A) (A) (A) (A) (A) (A) (A) (A) (A) (A) (A) (A)
                 (A) (A) (A) (A) (A) (A) (A) (A) (A) (A) (A) (A)
                 (A) (A) (A) (A) (A) (A) (A) (A) (A) (A) (A) (A)
                 (A) (A) (A) (A) (A) (A) (A) (A) (A) (A) (A) (A)
                 (A) (A) (A) (A) (A) (A) (A) (A) (A) (A) (A) (A)
                 (A) (A) (A) (A) (A) (A) (A) (A) (A) (A) (A) (A)
                 (A) (A) (A) (A) (A) (A) (A) (A) (A) (A) (A) (A)
                 (A) (A) (A) (A) (A) (A) (A) (A) (A) (A) (A) (A)
                 (A) (A) (A) (A) (A) (A) (A) (A) (A) (A) (A) (A)
                 (A) (A) (A) (A) (A) (A) (A) (A) (A) (A) (A) (A)
                 (A) (A) (A) (A) (A) (A) (A) (A) (A) (A) (A) (A)
                 (A) (A) (A) (A) (A) (A) (A) (A) (A) (A) (A) (A)
                 (A) (A) (A) (A) (A) (A) (A) (A) (A) (A) (A) (A)
                 (A) (A) (A) (A) (A) (A) (A) (A) (A) (A) (A) (A)
                 (A) (A) (A) (A) (A) (A) (A) (A) (A) (A) (A) (A)
                 (A) (A) (A) (A) (A) (A) (A) (A) (A) (A) (A) (A)
                 (A) (A) (A) (A) (A) (A) (A) (A) (A) (A) (A) (A)
                 (A) (A) (A) (A) (A) (A) (A) (A) (A) (A) (A) (A)
                 (A) (A) (A) (A) (A) (A) (A) (A) (A) (A) (A) (A)
                 (A) (A) (A) (A) (A) (A) (A) (A) (A) (A) (A) (A)
                 (A) (A) (A) (A) (A) (A) (A) (A) (A) (A) (A) (A)
                 (A) (A) (A) (A) (A) (A) (A) (A) (A) (A) (A) (A)
                 (A) (A) (A) (A) (A) (A) (A) (A) (A) (A) (A) (A)
                 (A) (A) (A) (A) (A) (A) (A) (A) (A) (A) (A) (A)
                 (A) (A) (A) (A) (A) (A) (A) (A) (A) (A) (A) (A)
                 (A) (A) (A) (A) (A) (A) (A) (A) (A) (A) (A) (A)
                 (A) (A) (A) (A) (A) (A) (A) (A) (A) (A) (A) (A)
                 (A) (A) (A) (A) (A) (A) (A) (A) (A) (A) (A) (A)
                 (A) (A) (A) (A) (A) (A) (A) (A) (A) (A)
 The electronic state of the initial guess is 2-A.
 Initial guess <Sx>= 0.0000 <Sy>= 0.0000 <Sz>= 0.5000 <S**2>= 0.7500 S= 0.5000
 Requested convergence on RMS density matrix=1.00D-08 within 128 cycles.
 Requested convergence on MAX density matrix=1.00D-06.
 Requested convergence on             energy=1.00D-06.
 No special actions if energy rises.
 EnCoef did     3 forward-backward iterations
 EnCoef did     2 forward-backward iterations
 EnCoef did     3 forward-backward iterations
 EnCoef did     2 forward-backward iterations
 EnCoef did     3 forward-backward iterations
 Rare condition: small coef for last iteration:  0.000D+00
 Rare condition: small coef for last iteration:  0.000D+00
 Rare condition: small coef for last iteration:  0.000D+00
 Restarting incremental Fock formation.
 Matrix for removal  3 Erem= -1934.66275013142     Crem= 0.000D+00
 Restarting incremental Fock formation.
 SCF Done:  E(UB3LYP) =  -1936.13579338     A.U. after   42 cycles
             Convg  =    0.4400D-08             -V/T =  2.0070
 <Sx>= 0.0000 <Sy>= 0.0000 <Sz>= 0.5000 <S**2>= 0.7587 S= 0.5043
 <L.S>= 0.000000000000E+00
 Annihilation of the first spin contaminant:
 S**2 before annihilation     0.7587,   after     0.7501

 **********************************************************************

            Population analysis using the SCF density.

 **********************************************************************

 Orbital symmetries:
 Alpha Orbitals:
       Occupied  (A) (A) (A) (A) (A) (A) (A) (A) (A) (A) (A) (A)
                 (A) (A) (A) (A) (A) (A) (A) (A) (A) (A) (A) (A)
                 (A) (A) (A) (A) (A) (A) (A) (A) (A) (A) (A) (A)
                 (A) (A) (A) (A) (A) (A) (A) (A) (A) (A) (A) (A)
                 (A) (A) (A) (A) (A) (A) (A) (A) (A) (A) (A) (A)
                 (A) (A) (A) (A) (A) (A) (A) (A) (A) (A) (A) (A)
                 (A) (A) (A) (A) (A) (A) (A) (A) (A) (A) (A) (A)
                 (A) (A) (A) (A) (A) (A) (A) (A) (A) (A) (A) (A)
                 (A) (A) (A) (A) (A) (A) (A) (A) (A)
       Virtual   (A) (A) (A) (A) (A) (A) (A) (A) (A) (A) (A) (A)
                 (A) (A) (A) (A) (A) (A) (A) (A) (A) (A) (A) (A)
                 (A) (A) (A) (A) (A) (A) (A) (A) (A) (A) (A) (A)
                 (A) (A) (A) (A) (A) (A) (A) (A) (A) (A) (A) (A)
                 (A) (A) (A) (A) (A) (A) (A) (A) (A) (A) (A) (A)
                 (A) (A) (A) (A) (A) (A) (A) (A) (A) (A) (A) (A)
                 (A) (A) (A) (A) (A) (A) (A) (A) (A) (A) (A) (A)
                 (A) (A) (A) (A) (A) (A) (A) (A) (A) (A) (A) (A)
                 (A) (A) (A) (A) (A) (A) (A) (A) (A) (A) (A) (A)
                 (A) (A) (A) (A) (A) (A) (A) (A) (A) (A) (A) (A)
                 (A) (A) (A) (A) (A) (A) (A) (A) (A) (A) (A) (A)
                 (A) (A) (A) (A) (A) (A) (A) (A) (A) (A) (A) (A)
                 (A) (A) (A) (A) (A) (A) (A) (A) (A) (A) (A) (A)
                 (A) (A) (A) (A) (A) (A) (A) (A) (A) (A) (A) (A)
                 (A) (A) (A) (A) (A) (A) (A) (A) (A) (A) (A) (A)
                 (A) (A) (A) (A) (A) (A) (A) (A) (A) (A) (A) (A)
                 (A) (A) (A) (A) (A) (A) (A) (A) (A) (A) (A) (A)
                 (A) (A) (A) (A) (A) (A) (A) (A) (A) (A) (A) (A)
                 (A) (A) (A) (A) (A) (A) (A) (A) (A) (A) (A) (A)
                 (A) (A) (A) (A) (A) (A) (A) (A) (A) (A) (A) (A)
                 (A) (A) (A) (A) (A) (A) (A) (A) (A) (A) (A) (A)
                 (A) (A) (A) (A) (A) (A) (A) (A) (A) (A) (A) (A)
                 (A) (A) (A) (A) (A) (A) (A) (A) (A) (A) (A) (A)
                 (A) (A) (A) (A) (A) (A) (A) (A) (A) (A) (A) (A)
                 (A) (A) (A) (A) (A) (A) (A) (A) (A) (A) (A) (A)
                 (A) (A) (A) (A) (A) (A) (A) (A) (A) (A) (A) (A)
                 (A) (A) (A) (A) (A) (A) (A) (A) (A) (A) (A) (A)
                 (A) (A) (A) (A) (A) (A) (A) (A) (A) (A) (A) (A)
                 (A) (A) (A) (A) (A) (A) (A) (A) (A) (A) (A) (A)
                 (A) (A) (A) (A) (A) (A) (A) (A) (A) (A) (A) (A)
                 (A) (A) (A) (A) (A) (A) (A) (A) (A) (A) (A) (A)
                 (A) (A) (A) (A) (A) (A) (A) (A) (A) (A) (A) (A)
                 (A) (A) (A) (A) (A) (A) (A) (A) (A) (A) (A) (A)
                 (A) (A) (A) (A) (A) (A) (A) (A) (A) (A) (A) (A)
                 (A) (A) (A) (A) (A) (A) (A) (A) (A) (A) (A) (A)
                 (A) (A) (A) (A) (A) (A) (A) (A) (A) (A) (A) (A)
                 (A) (A) (A) (A) (A) (A) (A) (A) (A) (A) (A) (A)
                 (A) (A) (A) (A) (A) (A) (A) (A) (A) (A) (A) (A)
                 (A) (A) (A) (A) (A) (A) (A) (A) (A) (A) (A) (A)
                 (A) (A) (A) (A) (A) (A) (A) (A) (A) (A) (A) (A)
                 (A) (A) (A) (A) (A) (A) (A) (A) (A) (A) (A) (A)
                 (A) (A) (A) (A) (A) (A) (A) (A) (A)
 Beta  Orbitals:
       Occupied  (A) (A) (A) (A) (A) (A) (A) (A) (A) (A) (A) (A)
                 (A) (A) (A) (A) (A) (A) (A) (A) (A) (A) (A) (A)
                 (A) (A) (A) (A) (A) (A) (A) (A) (A) (A) (A) (A)
                 (A) (A) (A) (A) (A) (A) (A) (A) (A) (A) (A) (A)
                 (A) (A) (A) (A) (A) (A) (A) (A) (A) (A) (A) (A)
                 (A) (A) (A) (A) (A) (A) (A) (A) (A) (A) (A) (A)
                 (A) (A) (A) (A) (A) (A) (A) (A) (A) (A) (A) (A)
                 (A) (A) (A) (A) (A) (A) (A) (A) (A) (A) (A) (A)
                 (A) (A) (A) (A) (A) (A) (A) (A)
       Virtual   (A) (A) (A) (A) (A) (A) (A) (A) (A) (A) (A) (A)
                 (A) (A) (A) (A) (A) (A) (A) (A) (A) (A) (A) (A)
                 (A) (A) (A) (A) (A) (A) (A) (A) (A) (A) (A) (A)
                 (A) (A) (A) (A) (A) (A) (A) (A) (A) (A) (A) (A)
                 (A) (A) (A) (A) (A) (A) (A) (A) (A) (A) (A) (A)
                 (A) (A) (A) (A) (A) (A) (A) (A) (A) (A) (A) (A)
                 (A) (A) (A) (A) (A) (A) (A) (A) (A) (A) (A) (A)
                 (A) (A) (A) (A) (A) (A) (A) (A) (A) (A) (A) (A)
                 (A) (A) (A) (A) (A) (A) (A) (A) (A) (A) (A) (A)
                 (A) (A) (A) (A) (A) (A) (A) (A) (A) (A) (A) (A)
                 (A) (A) (A) (A) (A) (A) (A) (A) (A) (A) (A) (A)
                 (A) (A) (A) (A) (A) (A) (A) (A) (A) (A) (A) (A)
                 (A) (A) (A) (A) (A) (A) (A) (A) (A) (A) (A) (A)
                 (A) (A) (A) (A) (A) (A) (A) (A) (A) (A) (A) (A)
                 (A) (A) (A) (A) (A) (A) (A) (A) (A) (A) (A) (A)
                 (A) (A) (A) (A) (A) (A) (A) (A) (A) (A) (A) (A)
                 (A) (A) (A) (A) (A) (A) (A) (A) (A) (A) (A) (A)
                 (A) (A) (A) (A) (A) (A) (A) (A) (A) (A) (A) (A)
                 (A) (A) (A) (A) (A) (A) (A) (A) (A) (A) (A) (A)
                 (A) (A) (A) (A) (A) (A) (A) (A) (A) (A) (A) (A)
                 (A) (A) (A) (A) (A) (A) (A) (A) (A) (A) (A) (A)
                 (A) (A) (A) (A) (A) (A) (A) (A) (A) (A) (A) (A)
                 (A) (A) (A) (A) (A) (A) (A) (A) (A) (A) (A) (A)
                 (A) (A) (A) (A) (A) (A) (A) (A) (A) (A) (A) (A)
                 (A) (A) (A) (A) (A) (A) (A) (A) (A) (A) (A) (A)
                 (A) (A) (A) (A) (A) (A) (A) (A) (A) (A) (A) (A)
                 (A) (A) (A) (A) (A) (A) (A) (A) (A) (A) (A) (A)
                 (A) (A) (A) (A) (A) (A) (A) (A) (A) (A) (A) (A)
                 (A) (A) (A) (A) (A) (A) (A) (A) (A) (A) (A) (A)
                 (A) (A) (A) (A) (A) (A) (A) (A) (A) (A) (A) (A)
                 (A) (A) (A) (A) (A) (A) (A) (A) (A) (A) (A) (A)
                 (A) (A) (A) (A) (A) (A) (A) (A) (A) (A) (A) (A)
                 (A) (A) (A) (A) (A) (A) (A) (A) (A) (A) (A) (A)
                 (A) (A) (A) (A) (A) (A) (A) (A) (A) (A) (A) (A)
                 (A) (A) (A) (A) (A) (A) (A) (A) (A) (A) (A) (A)
                 (A) (A) (A) (A) (A) (A) (A) (A) (A) (A) (A) (A)
                 (A) (A) (A) (A) (A) (A) (A) (A) (A) (A) (A) (A)
                 (A) (A) (A) (A) (A) (A) (A) (A) (A) (A) (A) (A)
                 (A) (A) (A) (A) (A) (A) (A) (A) (A) (A) (A) (A)
                 (A) (A) (A) (A) (A) (A) (A) (A) (A) (A) (A) (A)
                 (A) (A) (A) (A) (A) (A) (A) (A) (A) (A) (A) (A)
                 (A) (A) (A) (A) (A) (A) (A) (A) (A) (A)
 The electronic state is 2-A.
 Alpha  occ. eigenvalues --  -89.04300 -89.04300 -19.23906 -19.23906 -14.48792
 Alpha  occ. eigenvalues --  -14.48792 -14.48756 -14.48756 -10.40864 -10.40864
 Alpha  occ. eigenvalues --  -10.39455 -10.39455 -10.38312 -10.38312 -10.38265
 Alpha  occ. eigenvalues --  -10.38265 -10.37887 -10.37887 -10.36440 -10.36439
 Alpha  occ. eigenvalues --  -10.35169 -10.35169 -10.33797 -10.33797 -10.33249
 Alpha  occ. eigenvalues --  -10.33249 -10.30397 -10.30358  -8.10168  -8.10168
 Alpha  occ. eigenvalues --   -6.06565  -6.06565  -6.06236  -6.06236  -6.05949
 Alpha  occ. eigenvalues --   -6.05949  -1.15432  -1.14900  -1.10198  -1.10155
 Alpha  occ. eigenvalues --   -1.08267  -1.06976  -0.98779  -0.98776  -0.94738
 Alpha  occ. eigenvalues --   -0.94709  -0.91533  -0.89340  -0.88759  -0.88326
 Alpha  occ. eigenvalues --   -0.88157  -0.83387  -0.81033  -0.78815  -0.78194
 Alpha  occ. eigenvalues --   -0.77244  -0.74329  -0.73077  -0.71967  -0.71881
 Alpha  occ. eigenvalues --   -0.68338  -0.65145  -0.64281  -0.63913  -0.62557
 Alpha  occ. eigenvalues --   -0.62063  -0.61821  -0.61655  -0.61472  -0.60529
 Alpha  occ. eigenvalues --   -0.59991  -0.59244  -0.58828  -0.58580  -0.57861
 Alpha  occ. eigenvalues --   -0.56190  -0.55451  -0.54576  -0.54127  -0.53794
 Alpha  occ. eigenvalues --   -0.53448  -0.52860  -0.52582  -0.52468  -0.50749
 Alpha  occ. eigenvalues --   -0.49870  -0.49427  -0.49254  -0.48885  -0.47496
 Alpha  occ. eigenvalues --   -0.47119  -0.45122  -0.45051  -0.44352  -0.43912
 Alpha  occ. eigenvalues --   -0.41922  -0.41756  -0.41649  -0.41630  -0.38209
 Alpha  occ. eigenvalues --   -0.37012  -0.36720  -0.34461  -0.34393  -0.31407
 Alpha virt. eigenvalues --   -0.20725  -0.20675  -0.19246  -0.12910  -0.12907
 Alpha virt. eigenvalues --   -0.12634  -0.12455  -0.11181  -0.09974  -0.09409
 Alpha virt. eigenvalues --   -0.07661  -0.07641  -0.07599  -0.07262  -0.06976
 Alpha virt. eigenvalues --   -0.06860  -0.06516  -0.05979  -0.05601  -0.05365
 Alpha virt. eigenvalues --   -0.04939  -0.04409  -0.03955  -0.03807  -0.03276
 Alpha virt. eigenvalues --   -0.03209  -0.03199  -0.02289  -0.02230  -0.01832
 Alpha virt. eigenvalues --   -0.01684  -0.01271  -0.01245  -0.00723  -0.00688
 Alpha virt. eigenvalues --   -0.00287   0.00222   0.00269   0.00801   0.00942
 Alpha virt. eigenvalues --    0.01043   0.01127   0.01788   0.01855   0.02194
 Alpha virt. eigenvalues --    0.02571   0.02613   0.03244   0.03289   0.04075
 Alpha virt. eigenvalues --    0.04104   0.04455   0.04526   0.04855   0.05129
 Alpha virt. eigenvalues --    0.05252   0.05618   0.06108   0.06219   0.06542
 Alpha virt. eigenvalues --    0.06679   0.06822   0.06973   0.07355   0.07369
 Alpha virt. eigenvalues --    0.07454   0.07607   0.07810   0.08469   0.08593
 Alpha virt. eigenvalues --    0.08735   0.08822   0.09631   0.09711   0.10474
 Alpha virt. eigenvalues --    0.10510   0.10924   0.11068   0.11299   0.11679
 Alpha virt. eigenvalues --    0.11803   0.11937   0.12159   0.12409   0.12754
 Alpha virt. eigenvalues --    0.13052   0.13177   0.13198   0.13428   0.13512
 Alpha virt. eigenvalues --    0.13818   0.14478   0.14574   0.14736   0.14914
 Alpha virt. eigenvalues --    0.15027   0.15077   0.15600   0.15886   0.16258
 Alpha virt. eigenvalues --    0.16457   0.16730   0.16921   0.17006   0.17529
 Alpha virt. eigenvalues --    0.17876   0.18001   0.18091   0.18139   0.18356
 Alpha virt. eigenvalues --    0.18599   0.19055   0.19118   0.19568   0.19903
 Alpha virt. eigenvalues --    0.20401   0.20778   0.21071   0.21308   0.21561
 Alpha virt. eigenvalues --    0.21628   0.22270   0.22295   0.22495   0.22591
 Alpha virt. eigenvalues --    0.23013   0.23927   0.23970   0.24323   0.24585
 Alpha virt. eigenvalues --    0.25115   0.25306   0.26090   0.26456   0.27053
 Alpha virt. eigenvalues --    0.27272   0.27540   0.27688   0.28329   0.28729
 Alpha virt. eigenvalues --    0.29733   0.30103   0.30792   0.30858   0.31796
 Alpha virt. eigenvalues --    0.32551   0.32600   0.33150   0.33340   0.34005
 Alpha virt. eigenvalues --    0.34341   0.35123   0.35434   0.36654   0.37248
 Alpha virt. eigenvalues --    0.37435   0.37574   0.38778   0.39597   0.39728
 Alpha virt. eigenvalues --    0.39945   0.40392   0.41239   0.41941   0.45758
 Alpha virt. eigenvalues --    0.46036   0.46141   0.46772   0.47036   0.48188
 Alpha virt. eigenvalues --    0.49258   0.50165   0.51194   0.51408   0.53419
 Alpha virt. eigenvalues --    0.54503   0.54695   0.55099   0.55246   0.57002
 Alpha virt. eigenvalues --    0.57196   0.57689   0.57869   0.58639   0.59051
 Alpha virt. eigenvalues --    0.59586   0.59984   0.61130   0.61302   0.62093
 Alpha virt. eigenvalues --    0.63335   0.63468   0.63856   0.64055   0.64599
 Alpha virt. eigenvalues --    0.65228   0.65317   0.66045   0.66685   0.67100
 Alpha virt. eigenvalues --    0.67552   0.67889   0.69175   0.70077   0.70237
 Alpha virt. eigenvalues --    0.71428   0.71587   0.72818   0.73072   0.73189
 Alpha virt. eigenvalues --    0.74154   0.75588   0.76726   0.76974   0.78199
 Alpha virt. eigenvalues --    0.78716   0.79003   0.80034   0.80953   0.81457
 Alpha virt. eigenvalues --    0.81816   0.82430   0.83348   0.83425   0.84346
 Alpha virt. eigenvalues --    0.84612   0.85089   0.85383   0.85762   0.86730
 Alpha virt. eigenvalues --    0.87040   0.87504   0.87637   0.88155   0.88727
 Alpha virt. eigenvalues --    0.89928   0.91158   0.92268   0.92887   0.93698
 Alpha virt. eigenvalues --    0.94141   0.95401   0.95683   0.97045   0.97753
 Alpha virt. eigenvalues --    0.97837   0.98286   0.98762   0.99556   0.99705
 Alpha virt. eigenvalues --    1.00217   1.00491   1.01122   1.02176   1.03134
 Alpha virt. eigenvalues --    1.03698   1.04361   1.05896   1.05908   1.08651
 Alpha virt. eigenvalues --    1.08834   1.09943   1.10851   1.11142   1.12388
 Alpha virt. eigenvalues --    1.13738   1.13750   1.14247   1.16090   1.16576
 Alpha virt. eigenvalues --    1.16675   1.17115   1.17766   1.18277   1.19700
 Alpha virt. eigenvalues --    1.20556   1.21617   1.21837   1.22544   1.23454
 Alpha virt. eigenvalues --    1.24310   1.24344   1.24666   1.25434   1.26457
 Alpha virt. eigenvalues --    1.27295   1.27355   1.28383   1.28733   1.29161
 Alpha virt. eigenvalues --    1.29567   1.30202   1.30414   1.31506   1.31773
 Alpha virt. eigenvalues --    1.32399   1.33535   1.34235   1.36176   1.36496
 Alpha virt. eigenvalues --    1.38569   1.38580   1.39801   1.41579   1.41802
 Alpha virt. eigenvalues --    1.43699   1.45692   1.46320   1.47623   1.50407
 Alpha virt. eigenvalues --    1.54073   1.54674   1.54968   1.57101   1.57488
 Alpha virt. eigenvalues --    1.58197   1.58862   1.59544   1.61665   1.63456
 Alpha virt. eigenvalues --    1.64543   1.65656   1.67409   1.69266   1.69533
 Alpha virt. eigenvalues --    1.69782   1.71579   1.71626   1.72623   1.72916
 Alpha virt. eigenvalues --    1.74552   1.74926   1.75900   1.76148   1.76259
 Alpha virt. eigenvalues --    1.77071   1.78464   1.78899   1.79627   1.81355
 Alpha virt. eigenvalues --    1.82130   1.82665   1.83087   1.84014   1.84656
 Alpha virt. eigenvalues --    1.84816   1.86437   1.88083   1.88225   1.89201
 Alpha virt. eigenvalues --    1.89571   1.90820   1.90885   1.91966   1.92808
 Alpha virt. eigenvalues --    1.94957   1.95054   1.95781   1.96402   1.97724
 Alpha virt. eigenvalues --    1.97813   1.98735   1.99013   1.99066   2.00097
 Alpha virt. eigenvalues --    2.01394   2.01456   2.03109   2.04154   2.04854
 Alpha virt. eigenvalues --    2.05661   2.05952   2.06328   2.09870   2.11714
 Alpha virt. eigenvalues --    2.13532   2.13770   2.15915   2.17028   2.17589
 Alpha virt. eigenvalues --    2.17599   2.18131   2.19471   2.20417   2.22591
 Alpha virt. eigenvalues --    2.23569   2.25813   2.26791   2.28253   2.28468
 Alpha virt. eigenvalues --    2.31279   2.31346   2.31728   2.32465   2.33565
 Alpha virt. eigenvalues --    2.34553   2.34889   2.35669   2.36286   2.37137
 Alpha virt. eigenvalues --    2.37828   2.39530   2.39530   2.39885   2.41254
 Alpha virt. eigenvalues --    2.41562   2.41706   2.43499   2.44147   2.46364
 Alpha virt. eigenvalues --    2.46366   2.47282   2.48696   2.49680   2.49828
 Alpha virt. eigenvalues --    2.50388   2.52188   2.53042   2.53794   2.55878
 Alpha virt. eigenvalues --    2.56110   2.57456   2.58419   2.60149   2.60732
 Alpha virt. eigenvalues --    2.62058   2.62455   2.64320   2.65899   2.66214
 Alpha virt. eigenvalues --    2.66467   2.67272   2.70253   2.70349   2.72292
 Alpha virt. eigenvalues --    2.72665   2.74948   2.76154   2.79289   2.79942
 Alpha virt. eigenvalues --    2.80889   2.83501   2.84741   2.87186   2.89332
 Alpha virt. eigenvalues --    2.90183   2.91352   2.94451   2.94591   2.98667
 Alpha virt. eigenvalues --    3.00549   3.04277   3.05074   3.11189   3.12028
 Alpha virt. eigenvalues --    3.15681   3.16501   3.17719   3.18219   3.18891
 Alpha virt. eigenvalues --    3.19196   3.24182   3.28627   3.29333   3.31235
 Alpha virt. eigenvalues --    3.31590   3.31983   3.32443   3.35044   3.49340
 Alpha virt. eigenvalues --    3.50519   3.60347   3.60360   3.84876   3.84978
 Alpha virt. eigenvalues --    4.09524   4.10606   4.13793   4.17133   4.17390
 Alpha virt. eigenvalues --    4.21327   4.24734   4.25524   4.26040   4.26929
 Alpha virt. eigenvalues --    4.32151   4.34077   4.34785   4.38145   4.39064
 Alpha virt. eigenvalues --    4.39919   4.40679   4.43803   4.46368   4.51431
 Alpha virt. eigenvalues --    4.56326   4.66399   4.74450   4.78310   4.89358
 Alpha virt. eigenvalues --    5.00092
  Beta  occ. eigenvalues --  -89.04192 -89.04192 -19.23899 -19.23899 -14.48790
  Beta  occ. eigenvalues --  -14.48790 -14.48685 -14.48685 -10.40864 -10.40864
  Beta  occ. eigenvalues --  -10.39481 -10.39481 -10.38301 -10.38301 -10.38270
  Beta  occ. eigenvalues --  -10.38270 -10.37833 -10.37832 -10.36448 -10.36448
  Beta  occ. eigenvalues --  -10.34995 -10.34995 -10.33559 -10.33558 -10.33269
  Beta  occ. eigenvalues --  -10.33269 -10.30398 -10.30359  -8.10064  -8.10064
  Beta  occ. eigenvalues --   -6.06499  -6.06499  -6.06175  -6.06174  -6.05608
  Beta  occ. eigenvalues --   -6.05608  -1.15422  -1.14890  -1.10091  -1.10041
  Beta  occ. eigenvalues --   -1.08241  -1.06956  -0.98450  -0.98449  -0.94441
  Beta  occ. eigenvalues --   -0.94403  -0.91518  -0.89114  -0.88557  -0.88053
  Beta  occ. eigenvalues --   -0.87830  -0.83177  -0.80719  -0.78575  -0.78181
  Beta  occ. eigenvalues --   -0.77108  -0.74118  -0.72874  -0.71817  -0.71712
  Beta  occ. eigenvalues --   -0.68269  -0.65086  -0.64226  -0.63800  -0.62416
  Beta  occ. eigenvalues --   -0.61891  -0.61670  -0.61464  -0.61340  -0.60384
  Beta  occ. eigenvalues --   -0.59747  -0.59002  -0.58767  -0.58496  -0.57752
  Beta  occ. eigenvalues --   -0.56151  -0.55373  -0.54449  -0.54054  -0.53626
  Beta  occ. eigenvalues --   -0.53294  -0.52733  -0.52546  -0.52366  -0.50574
  Beta  occ. eigenvalues --   -0.49497  -0.48993  -0.48973  -0.48448  -0.47339
  Beta  occ. eigenvalues --   -0.46948  -0.44472  -0.44425  -0.44275  -0.43854
  Beta  occ. eigenvalues --   -0.41781  -0.41552  -0.40403  -0.40370  -0.38158
  Beta  occ. eigenvalues --   -0.37009  -0.36632  -0.31507  -0.31382
  Beta virt. eigenvalues --   -0.30424  -0.19800  -0.19770  -0.19204  -0.12728
  Beta virt. eigenvalues --   -0.12710  -0.12222  -0.12044  -0.11140  -0.09925
  Beta virt. eigenvalues --   -0.09365  -0.07566  -0.07478  -0.07435  -0.07234
  Beta virt. eigenvalues --   -0.06950  -0.06735  -0.06485  -0.05785  -0.05528
  Beta virt. eigenvalues --   -0.05056  -0.04851  -0.04357  -0.03798  -0.03754
  Beta virt. eigenvalues --   -0.03219  -0.03156  -0.03130  -0.02199  -0.02140
  Beta virt. eigenvalues --   -0.01796  -0.01415  -0.01203  -0.01171  -0.00660
  Beta virt. eigenvalues --   -0.00618  -0.00241   0.00315   0.00399   0.00842
  Beta virt. eigenvalues --    0.00999   0.01111   0.01155   0.01854   0.01898
  Beta virt. eigenvalues --    0.02208   0.02626   0.02658   0.03282   0.03349
  Beta virt. eigenvalues --    0.04143   0.04146   0.04505   0.04592   0.04872
  Beta virt. eigenvalues --    0.05228   0.05290   0.05663   0.06160   0.06295
  Beta virt. eigenvalues --    0.06593   0.06725   0.06880   0.07030   0.07398
  Beta virt. eigenvalues --    0.07406   0.07539   0.07695   0.07867   0.08500
  Beta virt. eigenvalues --    0.08703   0.08779   0.08878   0.09688   0.09776
  Beta virt. eigenvalues --    0.10514   0.10553   0.11008   0.11121   0.11343
  Beta virt. eigenvalues --    0.11765   0.11864   0.11992   0.12301   0.12470
  Beta virt. eigenvalues --    0.12817   0.13120   0.13225   0.13255   0.13494
  Beta virt. eigenvalues --    0.13577   0.13874   0.14564   0.14597   0.14792
  Beta virt. eigenvalues --    0.14978   0.15083   0.15135   0.15651   0.15926
  Beta virt. eigenvalues --    0.16314   0.16504   0.16761   0.16989   0.17046
  Beta virt. eigenvalues --    0.17565   0.17925   0.18039   0.18149   0.18195
  Beta virt. eigenvalues --    0.18396   0.18639   0.19092   0.19142   0.19594
  Beta virt. eigenvalues --    0.19985   0.20461   0.20827   0.21117   0.21372
  Beta virt. eigenvalues --    0.21618   0.21694   0.22337   0.22342   0.22566
  Beta virt. eigenvalues --    0.22652   0.23075   0.23992   0.24010   0.24385
  Beta virt. eigenvalues --    0.24626   0.25144   0.25363   0.26125   0.26499
  Beta virt. eigenvalues --    0.27113   0.27322   0.27655   0.27731   0.28353
  Beta virt. eigenvalues --    0.28794   0.29750   0.30155   0.30848   0.30890
  Beta virt. eigenvalues --    0.31837   0.32586   0.32659   0.33206   0.33412
  Beta virt. eigenvalues --    0.34057   0.34374   0.35250   0.35537   0.36744
  Beta virt. eigenvalues --    0.37315   0.37497   0.37605   0.38837   0.39720
  Beta virt. eigenvalues --    0.39849   0.40303   0.40860   0.41438   0.41998
  Beta virt. eigenvalues --    0.45902   0.46165   0.46228   0.46916   0.47160
  Beta virt. eigenvalues --    0.48274   0.49725   0.50645   0.51320   0.51551
  Beta virt. eigenvalues --    0.53620   0.54958   0.55007   0.55302   0.55661
  Beta virt. eigenvalues --    0.57320   0.57538   0.57915   0.58059   0.58987
  Beta virt. eigenvalues --    0.59286   0.59723   0.60140   0.61324   0.61355
  Beta virt. eigenvalues --    0.62229   0.63449   0.63594   0.64018   0.64396
  Beta virt. eigenvalues --    0.64689   0.65346   0.65363   0.66221   0.66875
  Beta virt. eigenvalues --    0.67184   0.67605   0.68038   0.69299   0.70145
  Beta virt. eigenvalues --    0.70367   0.71569   0.71690   0.72950   0.73255
  Beta virt. eigenvalues --    0.73256   0.74433   0.75724   0.76917   0.77128
  Beta virt. eigenvalues --    0.78261   0.78827   0.79125   0.80160   0.81232
  Beta virt. eigenvalues --    0.81721   0.82074   0.82696   0.83504   0.83565
  Beta virt. eigenvalues --    0.84488   0.84704   0.85194   0.85548   0.85931
  Beta virt. eigenvalues --    0.86855   0.87152   0.87601   0.87718   0.88255
  Beta virt. eigenvalues --    0.88827   0.90072   0.91248   0.92349   0.92975
  Beta virt. eigenvalues --    0.93779   0.94323   0.95542   0.95808   0.97230
  Beta virt. eigenvalues --    0.97895   0.97919   0.98561   0.98963   0.99748
  Beta virt. eigenvalues --    0.99853   1.00423   1.00582   1.01311   1.02309
  Beta virt. eigenvalues --    1.03308   1.03778   1.04537   1.06029   1.06033
  Beta virt. eigenvalues --    1.08682   1.08967   1.10082   1.10974   1.11335
  Beta virt. eigenvalues --    1.12461   1.13791   1.13819   1.14303   1.16140
  Beta virt. eigenvalues --    1.16779   1.16875   1.17202   1.17825   1.18294
  Beta virt. eigenvalues --    1.19801   1.20666   1.21731   1.21941   1.22593
  Beta virt. eigenvalues --    1.23650   1.24367   1.24472   1.24906   1.25606
  Beta virt. eigenvalues --    1.26494   1.27362   1.27477   1.28565   1.28949
[...]
 0.00001036,-0.00005682,0.00013189,0.00002232,-0.00000654,0.00019813,-0
 .00016742,0.00000706,-0.00013203,0.00022185,0.00005314,-0.00012332,0.0
 0000567,-0.00002312,0.00128830,-0.00282129,-0.00185008,0.00208235,-0.0
 0062898,-0.00061491,-0.00162705,-0.00108042,-0.00007865,0.00011639,0.0
 0004811,0.00019204,0.00004080,-0.00006127,-0.00050491,-0.00000099,-0.0
 0003305,0.00010872,0.00030244,-0.00010233,-0.00000964,-0.00002836,0.00
 007011,0.00009455,0.00019598,0.00027823,-0.00004414,0.00236976,0.01350
 503,-0.00818162,0.00018991,0.00070477,0.00000280,-0.00011357,-0.000054
 41,-0.00009487,-0.00001945,-0.00003392,0.00013641,-0.00010768,0.000382
 04,-0.00031002,-0.00007323,-0.00003149,-0.00001429,0.00051937,-0.00007
 913,0.00035476,0.00001297,0.00000513,0.00001915,-0.00025136,-0.0005858
 7,-0.00002017,-0.00000174,-0.00001579,0.00000266,0.00020728,0.00000844
 ,0.00008325,-0.00016840,-0.00011942,-0.00005617,0.00001065,0.00000637,
 0.00003118,0.00002958,-0.00000677,-0.00000478,-0.05290425,0.12487414,-
 0.16626924,-0.00700668,0.01485607,-0.01325991,0.05084428,-0.13557774,0
 .18335717,0.00060578,0.00044323,-0.00006181,-0.00150233,0.00008546,-0.
 00006425,-0.00062656,-0.00033630,-0.00019690,0.00070708,0.00040130,-0.
 00031217,0.00076252,0.00046117,0.00036296,-0.00127323,-0.00010092,-0.0
 0018543,-0.00143862,0.00078466,-0.00002252,0.00140663,0.00010664,0.000
 27299,0.00105959,0.00006703,-0.00003286,0.00081499,-0.00057753,0.00003
 904,-0.00065324,0.00007795,0.00015208,-0.00014883,-0.00042513,-0.00038
 190,-0.00057203,-0.00027107,0.00050704,0.00112654,0.00428438,0.0000091
 8,-0.00150664,-0.00352402,0.00006760,-0.00002085,-0.00009531,-0.000027
 48,0.00310891,-0.00048468,-0.00199606,0.00005834,0.00003547,-0.0001121
 7,-0.00049215,0.00206394,0.00195512,-0.00043154,-0.00021034,0.00007066
 ,-0.00040464,-0.00020357,-0.00127402,0.00110451,0.00006114,-0.00043687
 ,-0.11084804,-0.04076762,-0.04989185,-0.02950262,-0.00322614,-0.022873
 28,-0.00001984,0.00217171,-0.00052258,-0.00313512,0.00202184,-0.002932
 12,-0.00026920,0.00014199,0.00012495,0.00978493,0.00335102,0.00301233,
 0.00044939,0.00026889,0.00016143,-0.00335344,-0.02100357,-0.00021262,-
 0.00029859,0.00058889,0.00109497,-0.02632142,0.00580757,-0.02257564,-0
 .04836100,-0.00053444,-0.00937639,-0.00171397,0.00709578,-0.00417962,0
 .00740110,-0.00408371,0.00170108,-0.00099513,-0.00073780,0.00024853,0.
 00016541,-0.00004943,0.00003666,0.00007617,0.00005529,-0.00017824,0.20
 671157,0.00244235,0.00038711,-0.00005571,-0.00278142,0.00084013,-0.000
 01048,-0.00102169,-0.00144353,0.00053365,0.00165641,0.00107357,-0.0001
 1420,0.00159256,0.00077941,0.00006704,-0.00183004,-0.00044606,-0.00026
 806,-0.00182831,-0.00044592,-0.00001984,0.00161541,0.00029811,0.000058
 20,0.00137752,-0.00031140,-0.00007756,0.00064810,0.00010389,0.00000212
 ,-0.00079571,0.00005797,0.00016491,-0.00242747,0.00012937,-0.00026336,
 -0.00080860,-0.00029140,0.00061767,0.00133331,0.00473226,0.00002283,-0
 .00168763,-0.00395952,0.00014243,-0.00000422,-0.00011058,-0.00000835,0
 .00349448,-0.00053141,-0.00244770,0.00009215,0.00002714,-0.00009894,-0
 .00093501,0.00258201,0.00185839,-0.00053428,-0.00023527,0.00010126,0.0
 0006221,-0.00016914,-0.00050054,0.00135343,0.00001954,-0.00061252,-0.0
 6364496,-0.08536105,-0.02987958,-0.02048842,0.00395453,-0.01361641,0.0
 0061622,-0.00008037,0.00123249,-0.00305041,0.00165054,-0.00303967,-0.0
 0024768,0.00023424,-0.00013330,0.00955364,-0.00085368,0.00727805,-0.00
 078587,-0.00022239,-0.00036075,-0.02920689,-0.02971421,-0.01255453,-0.
 00000597,0.00055432,-0.00054043,0.02555211,-0.00761299,0.01910817,0.01
 450746,-0.05512706,0.01381297,0.00958515,-0.01514718,0.01377886,0.0102
 1397,-0.01278266,0.00674623,-0.00108367,-0.00078927,0.00044193,0.00020
 952,-0.00003204,0.00002167,0.00007402,0.00003135,-0.00020714,0.0480861
 1,0.20019144,-0.00043992,0.00016063,0.00028279,-0.00027590,-0.00075957
 ,-0.00004201,-0.00035620,-0.00038936,-0.00011897,0.00021450,0.00017203
 ,0.00027052,0.00022158,0.00012633,-0.00021461,-0.00064695,-0.00007253,
 -0.00007614,-0.00057448,0.00006832,-0.00001969,0.00045266,-0.00015944,
 -0.00025529,0.00015226,0.00035250,0.00000530,0.00015580,-0.00023451,-0
 .00000970,-0.00022844,0.00004845,0.00005117,0.00048767,-0.00040387,0.0
 0002204,-0.00037792,0.00004154,0.00023000,0.00063485,0.00190736,0.0000
 3840,-0.00062942,-0.00163168,0.00008718,0.00000501,-0.00005130,0.00001
 044,0.00132111,-0.00018501,-0.00109012,0.00006177,0.00000323,-0.000003
 67,-0.00075695,0.00111851,0.00025722,-0.00017062,-0.00009349,0.0000293
 3,0.00047223,0.00003480,0.00073601,0.00050851,-0.00009771,-0.00034384,
 -0.04560962,-0.01529188,-0.05106016,-0.02002473,-0.00188929,-0.0075048
 8,-0.00088103,0.00286086,0.00012808,-0.00149489,0.00066498,-0.00101107
 ,0.00002352,-0.00005001,-0.00015799,0.00163791,0.00309680,0.00417002,0
 .00032648,0.00025569,0.00034140,0.00190386,-0.00642845,0.00605223,0.00
 116084,-0.00015828,-0.00118690,-0.02608418,0.00638801,-0.01388397,-0.0
 1222745,0.00385214,-0.04338895,0.00305915,-0.00361568,0.00709347,-0.00
 885509,0.01282604,-0.00433200,-0.00036115,-0.00028364,0.00030142,0.000
 10870,0.00001416,-0.00000641,0.00002612,-0.00001184,-0.00009373,0.1074
 3568,-0.00189107,0.10453182,0.00140628,0.00010601,-0.00027420,-0.00143
 916,0.00078401,0.00002414,-0.00127492,-0.00010113,0.00018925,0.0007605
 5,0.00045829,-0.00035948,0.00070780,0.00039969,0.00031000,-0.00062919,
 -0.00033587,0.00019643,-0.00150184,0.00008875,0.00006094,0.00060712,0.
 00044468,0.00006222,0.00081546,-0.00057742,-0.00003954,0.00105944,0.00
 006589,0.00003262,-0.00014949,-0.00042553,0.00038160,-0.00065243,0.000
 07812,-0.00015141,-0.02950246,-0.00322698,0.02287809,-0.11085344,-0.04
 076533,0.04989106,-0.00334839,-0.02100561,0.00021532,-0.00029768,0.000
 58831,-0.00109528,0.00978073,0.00335063,-0.00301607,0.00044949,0.00026
 912,-0.00016100,-0.00313082,0.00202161,0.00293385,-0.00026949,0.000141
 47,-0.00012499,-0.00001831,0.00217386,0.00051579,-0.02632121,0.0058098
 2,0.02257518,0.00112798,0.00428810,-0.00000957,-0.00057230,-0.00027322
 ,-0.00050467,-0.00040467,-0.00020446,0.00127092,-0.00049191,0.00206443
 ,-0.00195339,-0.00043122,-0.00021048,-0.00007082,0.00310762,-0.0004835
 9,0.00199568,0.00005826,0.00003517,0.00011216,-0.00150794,-0.00352508,
 -0.00007055,-0.00002074,-0.00009535,0.00002782,0.00110606,0.00006122,0
 .00043682,-0.00099575,-0.00073745,-0.00024964,0.00007604,0.00005563,0.
 00017812,0.00016606,-0.00004965,-0.00003619,-0.04836084,-0.00053579,0.
 00937539,0.00740099,-0.00408333,-0.00169980,-0.00171388,0.00709553,0.0
 0417938,-0.00107127,-0.00124681,-0.00063568,0.20671209,0.00161604,0.00
 029891,-0.00006127,-0.00182850,-0.00044270,0.00002095,-0.00183110,-0.0
 0044595,0.00027093,0.00159056,0.00077686,-0.00006664,0.00165590,0.0010
 7139,0.00011445,-0.00102303,-0.00144331,-0.00053462,-0.00278134,0.0008
 4561,0.00000746,0.00244399,0.00038896,0.00005846,0.00064956,0.00010286
 ,-0.00000234,0.00137865,-0.00031344,0.00007770,-0.00242819,0.00012915,
 0.00026316,-0.00079570,0.00005797,-0.00016446,-0.02048830,0.00395402,0
 .01361927,-0.06364775,-0.08535953,0.02987889,-0.02920360,-0.02971557,0
 .01255665,-0.00000549,0.00055398,0.00054016,0.00955205,-0.00085323,-0.
 00728038,-0.00078591,-0.00022222,0.00036082,-0.00304498,0.00165070,0.0
 0304498,-0.00024790,0.00023390,0.00013322,0.00061391,-0.00008027,-0.00
 124476,0.02555263,-0.00761177,-0.01910788,0.00133250,0.00473546,-0.000
 02216,-0.00080814,-0.00029289,-0.00061773,0.00005866,-0.00017151,0.000
 50756,-0.00093121,0.00258220,-0.00186181,-0.00053419,-0.00023541,-0.00
 010133,0.00349458,-0.00053039,0.00244811,0.00009190,0.00002702,0.00009
 912,-0.00168782,-0.00396084,-0.00014485,-0.00000409,-0.00011066,0.0000
 0879,0.00135469,0.00001971,0.00061214,-0.00108459,-0.00078969,-0.00044
 184,0.00007395,0.00003177,0.00020716,0.00020974,-0.00003238,-0.0000216
 4,0.01450685,-0.05512889,-0.01381437,0.01021404,-0.01278274,-0.0067451
 3,0.00958523,-0.01514717,-0.01377875,-0.00124645,-0.00140080,-0.000596
 65,0.04808609,0.20019173,-0.00045257,0.00015925,-0.00025619,0.00057448
 ,-0.00006702,-0.00001859,0.00064762,0.00007250,-0.00007686,-0.00022198
 ,-0.00012630,-0.00021611,-0.00021506,-0.00017188,0.00027146,0.00035709
 ,0.00038954,-0.00011840,0.00027665,0.00076123,-0.00003988,0.00043947,-
 0.00016012,0.00028289,-0.00015571,0.00023372,-0.00001023,-0.00015180,-
 0.00035305,0.00000470,-0.00048791,0.00040381,0.00002212,0.00022897,-0.
 00004831,0.00005108,0.02002596,0.00189310,-0.00750251,0.04560693,0.015
 28720,-0.05106318,-0.00190265,0.00643144,0.00605321,-0.00116122,0.0001
 5841,-0.00118679,-0.00163683,-0.00309718,0.00416887,-0.00032666,-0.000
 25569,0.00034134,0.00149530,-0.00066552,-0.00100901,-0.00002356,0.0000
 5012,-0.00015817,0.00088008,-0.00286226,0.00012623,0.02608322,-0.00639
 093,-0.01388428,-0.00063271,-0.00191176,0.00003668,0.00037877,-0.00004
 000,0.00023272,-0.00047409,-0.00003529,0.00073800,0.00075822,-0.001117
 64,0.00025764,0.00017075,0.00009345,0.00002919,-0.00132188,0.00018449,
 -0.00109290,-0.00006175,-0.00000303,-0.00000362,0.00062787,0.00163448,
 0.00008886,-0.00000506,0.00005135,0.00001022,-0.00050928,0.00009689,-0
 .00034500,0.00036023,0.00028409,0.00030257,-0.00002589,0.00001168,-0.0
 0009439,-0.00010857,-0.00001420,-0.00000632,0.01222768,-0.00385151,-0.
 04338783,0.00885462,-0.01282612,-0.00433200,-0.00305920,0.00361597,0.0
 0709284,0.00063726,0.00059710,0.00018419,-0.10743521,0.00189141,0.1045
 3117,0.00182112,-0.00163213,-0.00046680,-0.00182770,-0.00086474,-0.000
 39872,-0.01699548,0.00387511,0.02927358,-0.00029237,-0.00045925,-0.000
 27085,-0.00131997,0.00060294,-0.00238295,0.00042568,0.00086677,-0.0000
 3475,0.00063066,0.00128932,0.00096560,0.00014765,-0.00020335,-0.000634
 85,0.00008903,0.00013704,0.00007058,0.00014401,-0.00101241,-0.00045804
 ,0.00022407,0.00001674,-0.00004247,-0.00000648,0.00023573,0.00039860,-
 0.00003274,0.00041656,-0.00007286,-0.00003645,-0.00061368,0.00006793,0
 .00026777,0.00041520,0.00004115,0.00001396,0.00000628,0.00001889,-0.00
 053699,0.00012540,0.00010959,0.00002174,-0.00001445,0.00008481,-0.0006
 1951,-0.00025531,-0.00108002,-0.00001591,0.00000473,-0.00002708,0.0006
 6596,0.00028642,0.00197723,-0.00021722,-0.00018913,-0.00010729,-0.0018
 1298,-0.00126575,0.00099699,0.00300030,-0.00307297,-0.02343786,-0.0458
 0918,-0.00195196,0.05169032,0.00054326,-0.00060443,0.00143978,0.000161
 25,-0.00028807,-0.00025767,-0.00150237,0.00051623,-0.00002273,-0.00003
 654,0.00003432,-0.00002409,0.00065970,0.00093879,0.00002307,0.00019830
 ,-0.00002980,-0.00030620,0.00041950,0.00001038,-0.00108374,-0.00025169
 ,0.00010942,0.00167522,-0.00000842,0.00024532,-0.00012900,-0.00044177,
 -0.00022176,-0.00022998,0.00025591,0.00020039,0.00016256,0.00001654,0.
 00004535,-0.00003131,-0.00001249,-0.00004723,0.00000836,-0.00032657,0.
 00024139,0.00009813,-0.00005633,0.00010638,-0.00016255,0.06220983,-0.0
 0030311,-0.00016531,0.00118922,0.00028202,-0.00041836,0.00028560,0.006
 65477,0.00042422,-0.01443674,-0.00034128,0.00013288,0.00069345,0.00110
 313,-0.00019618,0.00023927,-0.00068281,-0.00064867,-0.00002742,-0.0006
 6755,-0.00003835,-0.00030660,0.00008910,-0.00013706,-0.00039835,-0.000
 16308,0.00024326,-0.00001982,0.00024068,0.00001338,0.00007638,-0.00017
 853,0.00001493,0.00003211,0.00006675,-0.00018606,-0.00054064,-0.000357
 40,0.00007237,0.00016503,0.00042882,0.00096539,0.00002042,-0.00030792,
 -0.00088257,0.00011093,0.00001868,-0.00003175,0.00002713,0.00065809,-0
 .00009849,-0.00076803,0.00006433,-0.00001004,0.00002077,-0.00083519,0.
 00080726,-0.00028326,-0.00006656,-0.00003178,0.00003015,0.00077600,0.0
 0017894,0.00132175,0.00038566,-0.00014435,-0.00032043,-0.00083783,0.00
 044882,-0.00107429,0.00160449,-0.00263762,-0.01787954,-0.00224249,-0.0
 3719595,0.00326417,-0.00571320,-0.00349745,0.03169685,-0.00013001,0.00
 023499,-0.00144219,0.00143518,-0.00342546,0.00102899,0.00144057,-0.000
 58926,-0.00146077,-0.00217186,-0.00109264,-0.00005283,-0.00000947,-0.0
 0003767,0.00002358,-0.00088531,0.00065467,-0.00023913,-0.00051773,0.00
 011757,0.00081768,0.00008858,0.00014310,0.00000161,-0.00026741,-0.0000
 7102,-0.00018012,-0.00016820,-0.00008436,0.00033453,0.00008811,0.00003
 068,-0.00002663,0.00000500,-0.00003777,-0.00006060,-0.00017779,-0.0002
 2988,0.00029810,-0.00040588,-0.00035017,-0.00000517,0.00173398,0.04761
 699,-0.00036406,0.00081912,0.00041177,0.00046694,-0.00022054,0.0000242
 6,0.00658598,-0.00209368,-0.00211660,-0.00140720,-0.00057277,0.0007204
 8,0.00058989,-0.00038426,-0.00032734,-0.00046037,-0.00030872,-0.000029
 81,-0.00014560,0.00025703,-0.00000229,0.00003858,-0.00000271,-0.000231
 28,-0.00014891,-0.00002944,0.00002795,0.00007692,-0.00012946,-0.000163
 14,-0.00002984,0.00001618,0.00000640,-0.00012958,-0.00013272,-0.000165
 81,-0.00017201,0.00011545,0.00006911,0.00020923,0.00037499,0.00002221,
 -0.00010361,-0.00036751,0.00006306,0.00001316,-0.00001573,0.00001885,0
 .00022247,-0.00002149,-0.00036692,0.00003727,-0.00000769,0.00002936,-0
 .00053653,0.00035663,-0.00035074,-0.00002623,-0.00001379,0.00001387,0.
 00054537,0.00014086,0.00102069,0.00013876,-0.00010514,-0.00018439,-0.0
 0048570,-0.00099460,-0.00006665,-0.00159685,-0.00368975,-0.01766170,0.
 05291515,-0.00158878,-0.26710198,-0.00018005,0.00821834,-0.01058622,-0
 .00013916,0.00032949,0.00056152,0.00261841,0.00077995,0.00193938,-0.00
 039702,0.00018587,0.00024623,-0.00039565,-0.00076928,-0.00046193,0.000
 05954,-0.00002835,-0.00013401,0.00101012,0.00231220,0.00118082,-0.0012
 9867,-0.00044833,0.00090956,0.00015676,0.00024455,0.00003411,-0.000070
 94,-0.00011923,-0.00019224,-0.00003167,-0.00000860,0.00019698,0.000047
 98,0.00002490,-0.00001856,0.00000049,-0.00002761,-0.00002830,-0.000263
 39,-0.00004077,0.00000594,-0.00021925,-0.00015510,-0.00002978,-0.05728
 553,-0.00202702,0.29280985,0.00014786,-0.00020232,0.00063591,0.0006315
 9,0.00129094,-0.00096631,0.00042505,0.00086702,0.00003398,-0.00131893,
 0.00060304,0.00238350,-0.00029342,-0.00045982,0.00027029,-0.01699537,0
 .00387459,-0.02927483,-0.00182853,-0.00086633,0.00039765,0.00182073,-0
 .00163348,0.00046733,0.00014379,-0.00101287,0.00045882,0.00008891,0.00
 013746,-0.00006980,-0.00000543,0.00023602,-0.00039883,0.00022317,0.000
 01645,0.00004236,0.00300000,-0.00307361,0.02343281,-0.00180741,-0.0012
 6452,-0.00099357,0.00065584,0.00093847,-0.00002500,0.00019823,-0.00002
 967,0.00030625,-0.00150194,0.00051663,0.00002614,-0.00003650,0.0000343
 5,0.00002399,0.00054203,-0.00060338,-0.00144353,0.00016156,-0.00028800
 ,0.00025793,-0.04581054,-0.00195252,-0.05168517,0.00042028,0.00000992,
 0.00108443,-0.00004195,-0.00061555,-0.00006455,-0.00003263,0.00041814,
 0.00006743,0.00066855,0.00028753,-0.00197461,-0.00061900,-0.00025629,0
 .00107761,-0.00001616,0.00000459,0.00002730,-0.00053808,0.00012509,-0.
 00010551,0.00002177,-0.00001447,-0.00008503,0.00027205,0.00041576,-0.0
 0004354,0.00001409,0.00000611,-0.00001888,-0.00021796,-0.00018929,0.00
 010832,0.00025727,0.00019943,-0.00016303,-0.00001253,-0.00004735,-0.00
 000745,0.00001594,0.00004546,0.00003066,-0.00025294,0.00011055,-0.0016
 7521,-0.00044105,-0.00022182,0.00022931,-0.00000835,0.00024534,0.00012
 984,-0.00005669,0.00010750,0.00016220,-0.00032638,0.00024032,-0.000098
 91,0.00024288,0.00026670,0.00015482,0.06221023,0.00008939,-0.00013603,
 0.00039862,-0.00066680,-0.00003706,0.00030554,-0.00068277,-0.00064813,
 0.00002632,0.00110388,-0.00019550,-0.00024007,-0.00034211,0.00013278,-
 0.00069270,0.00665558,0.00042410,0.01443639,0.00028132,-0.00041927,-0.
 00028606,-0.00030335,-0.00016604,-0.00118833,0.00024079,0.00001307,-0.
 00007577,-0.00016282,0.00024341,0.00002041,0.00006742,-0.00018581,0.00
 054059,-0.00017927,0.00001471,-0.00003233,0.00160445,-0.00263780,0.017
 87542,-0.00083343,0.00044883,0.00107659,-0.00217510,-0.00109250,0.0000
 5090,-0.00000968,-0.00003749,-0.00002349,0.00143644,-0.00342521,-0.001
 02596,0.00144056,-0.00058922,0.00146059,-0.00571378,-0.00349666,-0.031
 69811,-0.00012983,0.00023513,0.00144233,-0.00224479,-0.03719681,-0.003
 26280,-0.00088490,0.00065416,0.00023997,0.00042446,0.00096392,-0.00001
 795,-0.00035666,0.00007283,-0.00016875,0.00077645,0.00017880,-0.001317
 36,-0.00083380,0.00080647,0.00028053,-0.00006681,-0.00003183,-0.000029
 99,0.00065750,-0.00009909,0.00077004,0.00006426,-0.00001003,-0.0000208
 1,-0.00030531,-0.00088167,-0.00011211,0.00001875,-0.00003185,-0.000027
 09,0.00038487,-0.00014397,0.00032083,-0.00016729,-0.00008510,-0.000334
 45,0.00000498,-0.00003779,0.00006118,0.00008751,0.00003067,0.00002621,
 -0.00051881,0.00011833,-0.00081808,-0.00026697,-0.00007112,0.00017965,
 0.00008862,0.00014321,-0.00000098,-0.00040562,-0.00034911,0.00000474,-
 0.00017747,-0.00023067,-0.00029827,0.00026625,0.00013878,0.00012754,0.
 00173389,0.04761655,-0.00003868,0.00000204,-0.00023292,0.00014514,-0.0
 0025643,-0.00000079,0.00046049,0.00030850,-0.00002851,-0.00059148,0.00
 038309,-0.00032745,0.00140734,0.00057223,0.00072060,-0.00658643,0.0020
 9414,-0.00211596,-0.00046586,0.00022406,0.00002460,0.00036438,-0.00081
 770,0.00041205,-0.00007649,0.00012896,-0.00016393,0.00014927,0.0000281
 9,0.00002723,0.00012884,0.00013244,-0.00016581,0.00003080,-0.00001594,
 0.00000664,0.00159773,0.00369279,-0.01765662,0.00047983,0.00099050,-0.
 00007020,0.00039985,0.00077121,-0.00045917,-0.00005949,0.00002819,-0.0
 0013406,-0.00261951,-0.00078049,0.00193584,0.00039692,-0.00018579,0.00
 024639,0.00018262,-0.00821893,-0.01058227,0.00013892,-0.00032965,0.000
 56129,-0.05291489,0.00158862,-0.26710842,-0.00101101,-0.00231347,0.001
 18036,-0.00020563,-0.00037631,0.00001988,0.00017268,-0.00011530,0.0000
 7346,-0.00054806,-0.00014230,0.00102048,0.00053774,-0.00035557,-0.0003
 4911,0.00002651,0.00001377,0.00001364,-0.00022305,0.00002167,-0.000370
 41,-0.00003733,0.00000775,0.00002948,0.00010066,0.00036906,0.00006388,
 -0.00001318,0.00001579,0.00001882,-0.00013851,0.00010427,-0.00018545,0
 .00003017,0.00000954,0.00019736,-0.00000035,0.00002767,-0.00002908,-0.
 00004736,-0.00002506,-0.00001806,0.00129952,0.00044760,0.00090964,0.00
 007030,0.00011920,-0.00019158,-0.00015672,-0.00024457,0.00003327,0.000
 22055,0.00015492,-0.00002892,0.00026398,0.00004234,0.00000600,-0.00015
 511,-0.00012813,-0.00009270,0.05728489,0.00202711,0.29281051||0.000001
 17,-0.00000136,0.00000019,0.00000137,-0.00000014,0.00000005,0.00000007
 ,-0.00000130,-0.00000026,-0.00000060,-0.00000062,0.00000028,0.00000039
 ,0.00000059,0.00000023,0.00000008,0.00000155,-0.00000040,-0.00000140,0
 .00000025,-0.00000049,-0.00000126,0.00000128,0.00000054,0.00000219,-0.
 00000002,-0.00000002,-0.00000237,-0.00000012,0.00000013,-0.00000154,0.
 00000186,-0.00000023,0.00000155,-0.00000188,-0.00000015,-0.00000046,0.
 00000334,-0.00000078,0.00000070,0.00000364,0.00000009,0.00000121,0.000
 00400,0.00000021,0.00000202,0.00000470,-0.00000008,0.00000246,0.000003
 42,-0.00000022,0.00000290,0.00000310,0.,0.00000151,0.00000248,0.000000
 31,0.00000221,0.00000171,-0.00000009,0.00000069,0.00000256,0.00000022,
 -0.00000130,0.00000369,0.00000047,-0.00000036,-0.00000375,-0.00000035,
 -0.00000041,-0.00000304,0.00000021,-0.00000055,-0.00000248,0.00000008,
 -0.00000146,-0.00000252,0.,-0.00000218,-0.00000176,-0.00000004,-0.0000
 0246,-0.00000347,-0.00000017,-0.00000292,-0.00000318,0.00000004,-0.000
 00107,-0.00000413,0.00000030,-0.00000196,-0.00000474,0.00000003,0.0000
 0166,-0.00000370,0.00000016,0.00000138,-0.00000414,-0.00000036,0.00000
 214,-0.00000419,0.00000004,0.00000193,-0.00000495,0.00000001,-0.000001
 31,0.00000407,-0.00000011,-0.00000186,0.00000497,0.00000002,-0.0000022
 0,0.00000421,-0.00000003,0.00000044,-0.00000556,0.00000018,-0.00000042
 ,0.00000568,0.,-0.00000046,-0.00000282,-0.00000004,0.00000047,0.000002
 76,0.00000005|||@


 THE WORLD IS NOT A HAMBURGER - YOU CAN'T HAVE IT YOUR WAY.
 Job cpu time:  0 days 12 hours 24 minutes 56.0 seconds.
 File lengths (MBytes):  RWF=   2877 Int=      0 D2E=      0 Chk=     32 Scr=      1
 Normal termination of Gaussian 09 at Sat Sep 30 08:47:32 2023.
