 Entering Gaussian System, Link 0=g16
 Initial command:
 /sw/cluster/pub/apps//g16/l1.exe "/data/natrosa/1783/Gau-715334.inp" -scrdir="/data/natrosa/1783/"
 Entering Link 1 = /sw/cluster/pub/apps//g16/l1.exe PID=    715335.
  
 Copyright (c) 1988,1990,1992,1993,1995,1998,2003,2009,2016,
            Gaussian, Inc.  All Rights Reserved.
  
 This is part of the Gaussian(R) 16 program.  It is based on
 the Gaussian(R) 09 system (copyright 2009, Gaussian, Inc.),
 the Gaussian(R) 03 system (copyright 2003, Gaussian, Inc.),
 the Gaussian(R) 98 system (copyright 1998, Gaussian, Inc.),
 the Gaussian(R) 94 system (copyright 1995, Gaussian, Inc.),
 the Gaussian 92(TM) system (copyright 1992, Gaussian, Inc.),
 the Gaussian 90(TM) system (copyright 1990, Gaussian, Inc.),
 the Gaussian 88(TM) system (copyright 1988, Gaussian, Inc.),
 the Gaussian 86(TM) system (copyright 1986, Carnegie Mellon
 University), and the Gaussian 82(TM) system (copyright 1983,
 Carnegie Mellon University). Gaussian is a federally registered
 trademark of Gaussian, Inc.
  
 This software contains proprietary and confidential information,
 including trade secrets, belonging to Gaussian, Inc.
  
 This software is provided under written license and may be
 used, copied, transmitted, or stored only in accord with that
 written license.
  
 The following legend is applicable only to US Government
 contracts under FAR:
  
                    RESTRICTED RIGHTS LEGEND
  
 Use, reproduction and disclosure by the US Government is
 subject to restrictions as set forth in subparagraphs (a)
 and (c) of the Commercial Computer Software - Restricted
 Rights clause in FAR 52.227-19.
  
 Gaussian, Inc.
 340 Quinnipiac St., Bldg. 40, Wallingford CT 06492
  
  
 ---------------------------------------------------------------
 Warning -- This program may not be used in any manner that
 competes with the business of Gaussian, Inc. or will provide
 assistance to any competitor of Gaussian, Inc.  The licensee
 of this program is prohibited from giving any competitor of
 Gaussian, Inc. access to this program.  By using this program,
 the user acknowledges that Gaussian, Inc. is engaged in the
 business of creating and licensing software in the field of
 computational chemistry and represents and warrants to the
 licensee that it is not a competitor of Gaussian, Inc. and that
 it will not use this program in any manner prohibited above.
 ---------------------------------------------------------------
  

 Cite this work as:
 Gaussian 16, Revision A.03,
 M. J. Frisch, G. W. Trucks, H. B. Schlegel, G. E. Scuseria, 
 M. A. Robb, J. R. Cheeseman, G. Scalmani, V. Barone, 
 G. A. Petersson, H. Nakatsuji, X. Li, M. Caricato, A. V. Marenich, 
 J. Bloino, B. G. Janesko, R. Gomperts, B. Mennucci, H. P. Hratchian, 
 J. V. Ortiz, A. F. Izmaylov, J. L. Sonnenberg, D. Williams-Young, 
 F. Ding, F. Lipparini, F. Egidi, J. Goings, B. Peng, A. Petrone, 
 T. Henderson, D. Ranasinghe, V. G. Zakrzewski, J. Gao, N. Rega, 
 G. Zheng, W. Liang, M. Hada, M. Ehara, K. Toyota, R. Fukuda, 
 J. Hasegawa, M. Ishida, T. Nakajima, Y. Honda, O. Kitao, H. Nakai, 
 T. Vreven, K. Throssell, J. A. Montgomery, Jr., J. E. Peralta, 
 F. Ogliaro, M. J. Bearpark, J. J. Heyd, E. N. Brothers, K. N. Kudin, 
 V. N. Staroverov, T. A. Keith, R. Kobayashi, J. Normand, 
 K. Raghavachari, A. P. Rendell, J. C. Burant, S. S. Iyengar, 
 J. Tomasi, M. Cossi, J. M. Millam, M. Klene, C. Adamo, R. Cammi, 
 J. W. Ochterski, R. L. Martin, K. Morokuma, O. Farkas, 
 J. B. Foresman, and D. J. Fox, Gaussian, Inc., Wallingford CT, 2016.
 
 ******************************************
 Gaussian 16:  ES64L-G16RevA.03 25-Dec-2016
                 5-Feb-2024 
 ******************************************
 %chk=DPP-SUB-7\DPP-SUB-7-ANION-CONT.chk
 ----------------------------------------------
 # opt freq b3lyp/6-31+g(d,p) geom=connectivity
 ----------------------------------------------
 1/18=20,19=15,26=3,38=1,57=2/1,3;
 2/9=110,12=2,17=6,18=5,40=1/2;
 3/5=1,6=6,7=111,11=2,25=1,30=1,71=1,74=-5/1,2,3;
 4//1;
 5/5=2,38=5/2;
 6/7=2,8=2,9=2,10=2,28=1/1;
 7//1,2,3,16;
 1/18=20,19=15,26=3/3(2);
 2/9=110/2;
 99//99;
 2/9=110/2;
 3/5=1,6=6,7=111,11=2,25=1,30=1,71=1,74=-5/1,2,3;
 4/5=5,16=3,69=1/1;
 5/5=2,38=5/2;
 7//1,2,3,16;
 1/18=20,19=15,26=3/3(-5);
 2/9=110/2;
 6/7=2,8=2,9=2,10=2,19=2,28=1/1;
 99/9=1/99;
 -------
 Energy:
 -------
 Symbolic Z-matrix:
 Charge = -1 Multiplicity = 2
 N                    -1.6989   -1.2756   -0.68757 
 C                    -0.36724  -1.73044  -0.59902 
 C                    -1.81157   0.10432  -0.71076 
 C                    -0.52422   0.61655  -0.63952 
 C                     0.4029   -0.49392  -0.55806 
 C                     1.69137   0.01819  -0.52839 
 C                     0.24577   1.8485   -0.68146 
 N                     1.58095   1.39549  -0.62603 
 O                    -0.05953  -2.93255  -0.60371 
 O                    -0.06338   3.04955  -0.75551 
 H                     2.39507   2.001    -0.57924 
 H                    -2.5154   -1.87775  -0.75273 
 C                     4.23864   0.11622  -0.07438 
 C                     5.33081  -0.59834   0.54836 
 C                     5.27383  -1.93911   0.82822 
 H                     6.10028  -2.44181   1.32029 
 C                     4.07767  -2.67721   0.49685 
 H                     4.02851  -3.72809   0.77177 
 C                     3.01595  -2.10914  -0.12258 
 H                     2.11606  -2.67904  -0.33631 
 C                     3.03902  -0.67206  -0.59391 
 N                     4.34929   1.40579  -0.24641 
 C                    -5.17006   0.46721   0.74293 
 C                    -4.29662  -0.08035  -0.26813 
 C                    -3.16862   0.77389  -0.85098 
 C                    -3.10583   2.16022  -0.23895 
 H                    -2.28763   2.79614  -0.56435 
 C                    -3.98205   2.58294   0.70416 
 H                    -3.86934   3.58208   1.11839 
 C                    -5.04659   1.75008   1.21013 
 H                    -5.72506   2.13788   1.96351 
 N                    -4.51202  -1.29657  -0.6974 
 C                    -5.60571  -1.94867  -0.02646 
 H                    -5.25787  -2.8276    0.53105 
 H                    -6.36817  -2.27543  -0.74326 
 C                     5.59479   1.94132   0.23431 
 H                     6.15276   2.43021  -0.5737 
 H                     5.42273   2.67727   1.02862 
 S                    -6.39639  -0.74174   1.18571 
 S                     6.64141   0.53899   0.93193 
 H                    -3.38397   0.86009  -1.93781 
 H                     3.22637  -0.73192  -1.68706 
 

 GradGradGradGradGradGradGradGradGradGradGradGradGradGradGradGradGradGrad
 Berny optimization.
 Initialization pass.
                           ----------------------------
                           !    Initial Parameters    !
                           ! (Angstroms and Degrees)  !
 --------------------------                            --------------------------
 ! Name  Definition              Value          Derivative Info.                !
 --------------------------------------------------------------------------------
 ! R1    R(1,2)                  1.41           estimate D2E/DX2                !
 ! R2    R(1,3)                  1.3847         estimate D2E/DX2                !
 ! R3    R(1,12)                 1.0166         estimate D2E/DX2                !
 ! R4    R(2,5)                  1.4573         estimate D2E/DX2                !
 ! R5    R(2,9)                  1.2409         estimate D2E/DX2                !
 ! R6    R(3,4)                  1.3873         estimate D2E/DX2                !
 ! R7    R(3,25)                 1.5197         estimate D2E/DX2                !
 ! R8    R(4,5)                  1.4489         estimate D2E/DX2                !
 ! R9    R(4,7)                  1.4534         estimate D2E/DX2                !
 ! R10   R(5,6)                  1.3868         estimate D2E/DX2                !
 ! R11   R(6,8)                  1.3852         estimate D2E/DX2                !
 ! R12   R(6,21)                 1.5156         estimate D2E/DX2                !
 ! R13   R(7,8)                  1.411          estimate D2E/DX2                !
 ! R14   R(7,10)                 1.2424         estimate D2E/DX2                !
 ! R15   R(8,11)                 1.0157         estimate D2E/DX2                !
 ! R16   R(13,14)                1.4461         estimate D2E/DX2                !
 ! R17   R(13,21)                1.5266         estimate D2E/DX2                !
 ! R18   R(13,22)                1.3057         estimate D2E/DX2                !
 ! R19   R(14,15)                1.3709         estimate D2E/DX2                !
 ! R20   R(14,40)                1.7772         estimate D2E/DX2                !
 ! R21   R(15,16)                1.0853         estimate D2E/DX2                !
 ! R22   R(15,17)                1.4441         estimate D2E/DX2                !
 ! R23   R(17,18)                1.0874         estimate D2E/DX2                !
 ! R24   R(17,19)                1.3541         estimate D2E/DX2                !
 ! R25   R(19,20)                1.0864         estimate D2E/DX2                !
 ! R26   R(19,21)                1.5126         estimate D2E/DX2                !
 ! R27   R(21,42)                1.1107         estimate D2E/DX2                !
 ! R28   R(22,36)                1.4385         estimate D2E/DX2                !
 ! R29   R(23,24)                1.4439         estimate D2E/DX2                !
 ! R30   R(23,30)                1.3709         estimate D2E/DX2                !
 ! R31   R(23,39)                1.7781         estimate D2E/DX2                !
 ! R32   R(24,25)                1.5303         estimate D2E/DX2                !
 ! R33   R(24,32)                1.3076         estimate D2E/DX2                !
 ! R34   R(25,26)                1.5167         estimate D2E/DX2                !
 ! R35   R(25,41)                1.1113         estimate D2E/DX2                !
 ! R36   R(26,27)                1.0862         estimate D2E/DX2                !
 ! R37   R(26,28)                1.355          estimate D2E/DX2                !
 ! R38   R(28,29)                1.0875         estimate D2E/DX2                !
 ! R39   R(28,30)                1.4432         estimate D2E/DX2                !
 ! R40   R(30,31)                1.0855         estimate D2E/DX2                !
 ! R41   R(32,33)                1.4393         estimate D2E/DX2                !
 ! R42   R(33,34)                1.0974         estimate D2E/DX2                !
 ! R43   R(33,35)                1.0963         estimate D2E/DX2                !
 ! R44   R(33,39)                1.8845         estimate D2E/DX2                !
 ! R45   R(36,37)                1.0969         estimate D2E/DX2                !
 ! R46   R(36,38)                1.0964         estimate D2E/DX2                !
 ! R47   R(36,40)                1.8838         estimate D2E/DX2                !
 ! A1    A(2,1,3)              113.5392         estimate D2E/DX2                !
 ! A2    A(2,1,12)             124.855          estimate D2E/DX2                !
 ! A3    A(3,1,12)             121.5896         estimate D2E/DX2                !
 ! A4    A(1,2,5)              103.13           estimate D2E/DX2                !
 ! A5    A(1,2,9)              123.1256         estimate D2E/DX2                !
 ! A6    A(5,2,9)              133.7126         estimate D2E/DX2                !
 ! A7    A(1,3,4)              106.9522         estimate D2E/DX2                !
 ! A8    A(1,3,25)             120.8818         estimate D2E/DX2                !
 ! A9    A(4,3,25)             132.1182         estimate D2E/DX2                !
 ! A10   A(3,4,5)              108.2808         estimate D2E/DX2                !
 ! A11   A(3,4,7)              143.4256         estimate D2E/DX2                !
 ! A12   A(5,4,7)              108.1957         estimate D2E/DX2                !
 ! A13   A(2,5,4)              108.0933         estimate D2E/DX2                !
 ! A14   A(2,5,6)              143.6008         estimate D2E/DX2                !
 ! A15   A(4,5,6)              108.2215         estimate D2E/DX2                !
 ! A16   A(5,6,8)              106.9534         estimate D2E/DX2                !
 ! A17   A(5,6,21)             131.0752         estimate D2E/DX2                !
 ! A18   A(8,6,21)             121.3789         estimate D2E/DX2                !
 ! A19   A(4,7,8)              103.1822         estimate D2E/DX2                !
 ! A20   A(4,7,10)             133.5757         estimate D2E/DX2                !
 ! A21   A(8,7,10)             123.2407         estimate D2E/DX2                !
 ! A22   A(6,8,7)              113.4174         estimate D2E/DX2                !
 ! A23   A(6,8,11)             121.7106         estimate D2E/DX2                !
 ! A24   A(7,8,11)             124.6717         estimate D2E/DX2                !
 ! A25   A(14,13,21)           119.0058         estimate D2E/DX2                !
 ! A26   A(14,13,22)           118.735          estimate D2E/DX2                !
 ! A27   A(21,13,22)           122.1241         estimate D2E/DX2                !
 ! A28   A(13,14,15)           122.6704         estimate D2E/DX2                !
 ! A29   A(13,14,40)           109.4929         estimate D2E/DX2                !
 ! A30   A(15,14,40)           127.7714         estimate D2E/DX2                !
 ! A31   A(14,15,16)           120.9269         estimate D2E/DX2                !
 ! A32   A(14,15,17)           119.1753         estimate D2E/DX2                !
 ! A33   A(16,15,17)           119.8712         estimate D2E/DX2                !
 ! A34   A(15,17,18)           118.2556         estimate D2E/DX2                !
 ! A35   A(15,17,19)           122.6835         estimate D2E/DX2                !
 ! A36   A(18,17,19)           119.0548         estimate D2E/DX2                !
 ! A37   A(17,19,20)           121.2907         estimate D2E/DX2                !
 ! A38   A(17,19,21)           121.9485         estimate D2E/DX2                !
 ! A39   A(20,19,21)           116.7263         estimate D2E/DX2                !
 ! A40   A(6,21,13)            116.6719         estimate D2E/DX2                !
 ! A41   A(6,21,19)            113.9335         estimate D2E/DX2                !
 ! A42   A(6,21,42)            102.5378         estimate D2E/DX2                !
 ! A43   A(13,21,19)           113.3621         estimate D2E/DX2                !
 ! A44   A(13,21,42)           103.3107         estimate D2E/DX2                !
 ! A45   A(19,21,42)           104.9542         estimate D2E/DX2                !
 ! A46   A(13,22,36)           113.3936         estimate D2E/DX2                !
 ! A47   A(24,23,30)           122.6172         estimate D2E/DX2                !
 ! A48   A(24,23,39)           109.4958         estimate D2E/DX2                !
 ! A49   A(30,23,39)           127.8451         estimate D2E/DX2                !
 ! A50   A(23,24,25)           120.0588         estimate D2E/DX2                !
 ! A51   A(23,24,32)           118.8769         estimate D2E/DX2                !
 ! A52   A(25,24,32)           121.0367         estimate D2E/DX2                !
 ! A53   A(3,25,24)            112.1552         estimate D2E/DX2                !
 ! A54   A(3,25,26)            109.1783         estimate D2E/DX2                !
 ! A55   A(3,25,41)            107.3044         estimate D2E/DX2                !
 ! A56   A(24,25,26)           112.7712         estimate D2E/DX2                !
 ! A57   A(24,25,41)           105.8398         estimate D2E/DX2                !
 ! A58   A(26,25,41)           109.3758         estimate D2E/DX2                !
 ! A59   A(25,26,27)           116.4516         estimate D2E/DX2                !
 ! A60   A(25,26,28)           122.633          estimate D2E/DX2                !
 ! A61   A(27,26,28)           120.8647         estimate D2E/DX2                !
 ! A62   A(26,28,29)           118.9961         estimate D2E/DX2                !
 ! A63   A(26,28,30)           122.7506         estimate D2E/DX2                !
 ! A64   A(29,28,30)           118.2367         estimate D2E/DX2                !
 ! A65   A(23,30,28)           119.1428         estimate D2E/DX2                !
 ! A66   A(23,30,31)           120.9686         estimate D2E/DX2                !
 ! A67   A(28,30,31)           119.8801         estimate D2E/DX2                !
 ! A68   A(24,32,33)           113.175          estimate D2E/DX2                !
 ! A69   A(32,33,34)           111.0281         estimate D2E/DX2                !
 ! A70   A(32,33,35)           111.0223         estimate D2E/DX2                !
 ! A71   A(32,33,39)           109.1785         estimate D2E/DX2                !
 ! A72   A(34,33,35)           108.2931         estimate D2E/DX2                !
 ! A73   A(34,33,39)           108.6124         estimate D2E/DX2                !
 ! A74   A(35,33,39)           108.642          estimate D2E/DX2                !
 ! A75   A(22,36,37)           111.1123         estimate D2E/DX2                !
 ! A76   A(22,36,38)           110.8624         estimate D2E/DX2                !
 ! A77   A(22,36,40)           109.1279         estimate D2E/DX2                !
 ! A78   A(37,36,38)           108.3193         estimate D2E/DX2                !
 ! A79   A(37,36,40)           108.7816         estimate D2E/DX2                !
 ! A80   A(38,36,40)           108.5769         estimate D2E/DX2                !
 ! A81   A(23,39,33)            89.192          estimate D2E/DX2                !
 ! A82   A(14,40,36)            89.2407         estimate D2E/DX2                !
 ! D1    D(3,1,2,5)              0.2935         estimate D2E/DX2                !
 ! D2    D(3,1,2,9)           -177.9092         estimate D2E/DX2                !
 ! D3    D(12,1,2,5)           178.8427         estimate D2E/DX2                !
 ! D4    D(12,1,2,9)             0.64           estimate D2E/DX2                !
 ! D5    D(2,1,3,4)              0.1394         estimate D2E/DX2                !
 ! D6    D(2,1,3,25)           177.9139         estimate D2E/DX2                !
 ! D7    D(12,1,3,4)          -178.463          estimate D2E/DX2                !
 ! D8    D(12,1,3,25)           -0.6885         estimate D2E/DX2                !
 ! D9    D(1,2,5,4)             -0.5969         estimate D2E/DX2                !
 ! D10   D(1,2,5,6)           -176.5585         estimate D2E/DX2                !
 ! D11   D(9,2,5,4)            177.3207         estimate D2E/DX2                !
 ! D12   D(9,2,5,6)              1.359          estimate D2E/DX2                !
 ! D13   D(1,3,4,5)             -0.5219         estimate D2E/DX2                !
 ! D14   D(1,3,4,7)            175.1382         estimate D2E/DX2                !
 ! D15   D(25,3,4,5)          -177.9468         estimate D2E/DX2                !
 ! D16   D(25,3,4,7)            -2.2867         estimate D2E/DX2                !
 ! D17   D(1,3,25,24)           28.8438         estimate D2E/DX2                !
 ! D18   D(1,3,25,26)          154.5823         estimate D2E/DX2                !
 ! D19   D(1,3,25,41)          -86.9755         estimate D2E/DX2                !
 ! D20   D(4,3,25,24)         -154.0266         estimate D2E/DX2                !
 ! D21   D(4,3,25,26)          -28.2881         estimate D2E/DX2                !
 ! D22   D(4,3,25,41)           90.154          estimate D2E/DX2                !
 ! D23   D(3,4,5,2)              0.714          estimate D2E/DX2                !
 ! D24   D(3,4,5,6)            178.1924         estimate D2E/DX2                !
 ! D25   D(7,4,5,2)           -176.5655         estimate D2E/DX2                !
 ! D26   D(7,4,5,6)              0.9129         estimate D2E/DX2                !
 ! D27   D(3,4,7,8)           -175.5134         estimate D2E/DX2                !
 ! D28   D(3,4,7,10)             4.0436         estimate D2E/DX2                !
 ! D29   D(5,4,7,8)              0.1489         estimate D2E/DX2                !
 ! D30   D(5,4,7,10)           179.7058         estimate D2E/DX2                !
 ! D31   D(2,5,6,8)            174.3467         estimate D2E/DX2                !
 ! D32   D(2,5,6,21)             3.3076         estimate D2E/DX2                !
 ! D33   D(4,5,6,8)             -1.612          estimate D2E/DX2                !
 ! D34   D(4,5,6,21)          -172.6511         estimate D2E/DX2                !
 ! D35   D(5,6,8,7)              1.8144         estimate D2E/DX2                !
 ! D36   D(5,6,8,11)           176.8985         estimate D2E/DX2                !
 ! D37   D(21,6,8,7)           173.9092         estimate D2E/DX2                !
 ! D38   D(21,6,8,11)          -11.0066         estimate D2E/DX2                !
 ! D39   D(5,6,21,13)         -160.0283         estimate D2E/DX2                !
 ! D40   D(5,6,21,19)          -24.9184         estimate D2E/DX2                !
 ! D41   D(5,6,21,42)           87.9069         estimate D2E/DX2                !
 ! D42   D(8,6,21,13)           30.0221         estimate D2E/DX2                !
 ! D43   D(8,6,21,19)          165.132          estimate D2E/DX2                !
 ! D44   D(8,6,21,42)          -82.0427         estimate D2E/DX2                !
 ! D45   D(4,7,8,6)             -1.2037         estimate D2E/DX2                !
 ! D46   D(4,7,8,11)          -176.1184         estimate D2E/DX2                !
 ! D47   D(10,7,8,6)           179.18           estimate D2E/DX2                !
 ! D48   D(10,7,8,11)            4.2654         estimate D2E/DX2                !
 ! D49   D(21,13,14,15)         -7.4569         estimate D2E/DX2                !
 ! D50   D(21,13,14,40)        175.2725         estimate D2E/DX2                !
 ! D51   D(22,13,14,15)        176.6772         estimate D2E/DX2                !
 ! D52   D(22,13,14,40)         -0.5934         estimate D2E/DX2                !
 ! D53   D(14,13,21,6)         147.6682         estimate D2E/DX2                !
 ! D54   D(14,13,21,19)         12.3102         estimate D2E/DX2                !
 ! D55   D(14,13,21,42)       -100.7095         estimate D2E/DX2                !
 ! D56   D(22,13,21,6)         -36.6123         estimate D2E/DX2                !
 ! D57   D(22,13,21,19)       -171.9703         estimate D2E/DX2                !
 ! D58   D(22,13,21,42)         75.01           estimate D2E/DX2                !
 ! D59   D(14,13,22,36)         -0.1444         estimate D2E/DX2                !
 ! D60   D(21,13,22,36)       -175.8751         estimate D2E/DX2                !
 ! D61   D(13,14,15,16)       -178.3643         estimate D2E/DX2                !
 ! D62   D(13,14,15,17)         -0.2443         estimate D2E/DX2                !
 ! D63   D(40,14,15,16)         -1.6198         estimate D2E/DX2                !
 ! D64   D(40,14,15,17)        176.5002         estimate D2E/DX2                !
 ! D65   D(13,14,40,36)          0.8197         estimate D2E/DX2                !
 ! D66   D(15,14,40,36)       -176.2735         estimate D2E/DX2                !
 ! D67   D(14,15,17,18)       -176.8938         estimate D2E/DX2                !
 ! D68   D(14,15,17,19)          2.1944         estimate D2E/DX2                !
 ! D69   D(16,15,17,18)          1.2464         estimate D2E/DX2                !
 ! D70   D(16,15,17,19)       -179.6654         estimate D2E/DX2                !
 ! D71   D(15,17,19,20)       -178.2617         estimate D2E/DX2                !
 ! D72   D(15,17,19,21)          3.9457         estimate D2E/DX2                !
 ! D73   D(18,17,19,20)          0.8194         estimate D2E/DX2                !
 ! D74   D(18,17,19,21)       -176.9731         estimate D2E/DX2                !
 ! D75   D(17,19,21,6)        -147.4619         estimate D2E/DX2                !
 ! D76   D(17,19,21,13)        -10.8528         estimate D2E/DX2                !
 ! D77   D(17,19,21,42)        101.1688         estimate D2E/DX2                !
 ! D78   D(20,19,21,6)          34.6501         estimate D2E/DX2                !
 ! D79   D(20,19,21,13)        171.2592         estimate D2E/DX2                !
 ! D80   D(20,19,21,42)        -76.7192         estimate D2E/DX2                !
 ! D81   D(13,22,36,37)        120.7169         estimate D2E/DX2                !
 ! D82   D(13,22,36,38)       -118.771          estimate D2E/DX2                !
 ! D83   D(13,22,36,40)          0.7691         estimate D2E/DX2                !
 ! D84   D(30,23,24,25)          0.6947         estimate D2E/DX2                !
 ! D85   D(30,23,24,32)       -177.4126         estimate D2E/DX2                !
 ! D86   D(39,23,24,25)        178.5093         estimate D2E/DX2                !
 ! D87   D(39,23,24,32)          0.402          estimate D2E/DX2                !
 ! D88   D(24,23,30,28)         -1.7299         estimate D2E/DX2                !
 ! D89   D(24,23,30,31)        179.3353         estimate D2E/DX2                !
 ! D90   D(39,23,30,28)       -179.1209         estimate D2E/DX2                !
 ! D91   D(39,23,30,31)          1.9443         estimate D2E/DX2                !
 ! D92   D(24,23,39,33)          1.1797         estimate D2E/DX2                !
 ! D93   D(30,23,39,33)        178.8487         estimate D2E/DX2                !
 ! D94   D(23,24,25,3)         124.4731         estimate D2E/DX2                !
 ! D95   D(23,24,25,26)          0.7209         estimate D2E/DX2                !
 ! D96   D(23,24,25,41)       -118.8241         estimate D2E/DX2                !
 ! D97   D(32,24,25,3)         -57.4612         estimate D2E/DX2                !
 ! D98   D(32,24,25,26)        178.7866         estimate D2E/DX2                !
 ! D99   D(32,24,25,41)         59.2416         estimate D2E/DX2                !
 ! D100  D(23,24,32,33)         -2.3733         estimate D2E/DX2                !
 ! D101  D(25,24,32,33)        179.5386         estimate D2E/DX2                !
 ! D102  D(3,25,26,27)          50.8927         estimate D2E/DX2                !
 ! D103  D(3,25,26,28)        -126.5367         estimate D2E/DX2                !
 ! D104  D(24,25,26,27)        176.2749         estimate D2E/DX2                !
 ! D105  D(24,25,26,28)         -1.1545         estimate D2E/DX2                !
 ! D106  D(41,25,26,27)        -66.2464         estimate D2E/DX2                !
 ! D107  D(41,25,26,28)        116.3242         estimate D2E/DX2                !
 ! D108  D(25,26,28,29)        178.6983         estimate D2E/DX2                !
 ! D109  D(25,26,28,30)          0.2069         estimate D2E/DX2                !
 ! D110  D(27,26,28,29)          1.3795         estimate D2E/DX2                !
 ! D111  D(27,26,28,30)       -177.1119         estimate D2E/DX2                !
 ! D112  D(26,28,30,23)          1.299          estimate D2E/DX2                !
 ! D113  D(26,28,30,31)       -179.7544         estimate D2E/DX2                !
 ! D114  D(29,28,30,23)       -177.2032         estimate D2E/DX2                !
 ! D115  D(29,28,30,31)          1.7433         estimate D2E/DX2                !
 ! D116  D(24,32,33,34)       -116.6381         estimate D2E/DX2                !
 ! D117  D(24,32,33,35)        122.8319         estimate D2E/DX2                !
 ! D118  D(24,32,33,39)          3.0803         estimate D2E/DX2                !
 ! D119  D(32,33,39,23)         -2.3686         estimate D2E/DX2                !
 ! D120  D(34,33,39,23)        118.8305         estimate D2E/DX2                !
 ! D121  D(35,33,39,23)       -123.5788         estimate D2E/DX2                !
 ! D122  D(22,36,40,14)         -0.9097         estimate D2E/DX2                !
 ! D123  D(37,36,40,14)       -122.2843         estimate D2E/DX2                !
 ! D124  D(38,36,40,14)        120.0357         estimate D2E/DX2                !
 --------------------------------------------------------------------------------
 Trust Radius=3.00D-01 FncErr=1.00D-07 GrdErr=1.00D-06 EigMax=2.50D+02 EigMin=1.00D-04
 Number of steps in this run=    252 maximum allowed number of steps=    252.
 GradGradGradGradGradGradGradGradGradGradGradGradGradGradGradGradGradGrad

                          Input orientation:                          
 ---------------------------------------------------------------------
 Center     Atomic      Atomic             Coordinates (Angstroms)
 Number     Number       Type             X           Y           Z
 ---------------------------------------------------------------------
      1          7           0       -1.698896   -1.275599   -0.687570
      2          6           0       -0.367244   -1.730441   -0.599016
      3          6           0       -1.811569    0.104322   -0.710755
      4          6           0       -0.524222    0.616547   -0.639518
      5          6           0        0.402899   -0.493916   -0.558059
      6          6           0        1.691371    0.018188   -0.528393
      7          6           0        0.245772    1.848496   -0.681457
      8          7           0        1.580949    1.395490   -0.626032
      9          8           0       -0.059534   -2.932552   -0.603710
     10          8           0       -0.063378    3.049548   -0.755513
     11          1           0        2.395066    2.001000   -0.579242
     12          1           0       -2.515404   -1.877746   -0.752725
     13          6           0        4.238636    0.116219   -0.074376
     14          6           0        5.330810   -0.598341    0.548356
     15          6           0        5.273833   -1.939110    0.828222
     16          1           0        6.100277   -2.441810    1.320292
     17          6           0        4.077673   -2.677213    0.496847
     18          1           0        4.028510   -3.728093    0.771768
     19          6           0        3.015951   -2.109139   -0.122577
     20          1           0        2.116065   -2.679044   -0.336309
     21          6           0        3.039024   -0.672058   -0.593908
     22          7           0        4.349287    1.405785   -0.246414
     23          6           0       -5.170060    0.467209    0.742929
     24          6           0       -4.296615   -0.080349   -0.268128
     25          6           0       -3.168618    0.773894   -0.850982
     26          6           0       -3.105827    2.160221   -0.238950
     27          1           0       -2.287629    2.796141   -0.564348
     28          6           0       -3.982049    2.582938    0.704158
     29          1           0       -3.869339    3.582082    1.118392
     30          6           0       -5.046591    1.750082    1.210131
     31          1           0       -5.725058    2.137884    1.963508
     32          7           0       -4.512018   -1.296568   -0.697402
     33          6           0       -5.605713   -1.948665   -0.026461
     34          1           0       -5.257866   -2.827604    0.531049
     35          1           0       -6.368170   -2.275426   -0.743255
     36          6           0        5.594788    1.941323    0.234311
     37          1           0        6.152759    2.430209   -0.573696
     38          1           0        5.422727    2.677268    1.028618
     39         16           0       -6.396391   -0.741738    1.185710
     40         16           0        6.641405    0.538989    0.931933
     41          1           0       -3.383965    0.860091   -1.937812
     42          1           0        3.226375   -0.731924   -1.687059
 ---------------------------------------------------------------------
                    Distance matrix (angstroms):
                    1          2          3          4          5
     1  N    0.000000
     2  C    1.409972   0.000000
     3  C    1.384707   2.337716   0.000000
     4  C    2.227641   2.352581   1.387340   0.000000
     5  C    2.246184   1.457324   2.298929   1.448902   0.000000
     6  C    3.632235   2.701960   3.508741   2.297659   1.386828
     7  C    3.679910   3.631993   2.697342   1.453392   2.350917
     8  N    4.230353   3.683426   3.630905   2.244700   2.227617
     9  O    2.332388   1.240878   3.507661   3.579570   2.482514
    10  O    4.624547   4.792194   3.425278   2.478977   3.579461
    11  H    5.244841   4.642672   4.616326   3.231499   3.192771
    12  H    1.016618   2.158684   2.103744   3.193606   3.235641
    13  C    6.129229   4.989943   6.083593   4.822295   3.913961
    14  C    7.169586   5.921649   7.286472   6.096589   5.051670
    15  C    7.166367   5.822568   7.533060   6.504082   5.266532
    16  H    8.137485   6.783702   8.556006   7.555024   6.307346
    17  C    6.061032   4.674888   6.624078   5.772142   4.402678
    18  H    6.399029   5.019195   7.140854   6.449418   5.037201
    19  C    4.821181   3.437501   5.343249   4.497712   3.102681
    20  H    4.080070   2.671271   4.828421   4.233671   2.785479
    21  C    4.777125   3.566912   4.913723   3.789367   2.642381
    22  N    6.630608   5.675025   6.313918   4.952627   4.390896
    23  C    4.139165   5.449543   3.677546   4.849461   5.802948
    24  C    2.890103   4.274605   2.530904   3.854159   4.726577
    25  C    2.527293   3.766016   1.519728   2.657500   3.801168
    26  C    3.739729   4.771450   2.474757   3.034480   4.411058
    27  H    4.115927   4.917217   2.737509   2.804618   4.250112
    28  C    4.694465   5.776705   3.585596   4.198658   5.503453
    29  H    5.618664   6.590680   4.435652   4.803588   6.138099
    30  C    4.895210   6.106009   4.106543   5.015768   6.152964
    31  H    5.906781   7.087781   5.157757   6.011564   7.129974
    32  N    2.813217   4.168582   3.042219   4.423333   4.981975
    33  C    4.019117   5.274182   4.367899   5.725181   6.205023
    34  H    4.069400   5.137995   4.692039   5.969907   6.219045
    35  H    4.775445   6.027348   5.140707   6.521196   7.003960
    36  C    8.024729   7.051391   7.689073   6.321463   5.789123
    37  H    8.682999   7.734474   8.298136   6.919232   6.450709
    38  H    8.323940   7.456598   7.872770   6.511179   6.145944
    39  S    5.085336   6.365013   5.033189   6.297520   7.023709
    40  S    8.687701   7.524312   8.622072   7.336326   6.496609
    41  H    2.993950   4.195693   2.132905   3.150081   4.251752
    42  H    5.054983   3.885225   5.199361   4.121006   3.050132
                    6          7          8          9         10
     6  C    0.000000
     7  C    2.337352   0.000000
     8  N    1.385167   1.411022   0.000000
     9  O    3.431939   4.791417   4.628567   0.000000
    10  O    3.509967   1.242411   2.335912   5.984027   0.000000
    11  H    2.104594   2.157121   1.015686   5.510499   2.678520
    12  H    4.619724   4.638324   5.245020   2.676961   5.503696
    13  C    2.589266   4.394576   3.000693   5.296175   5.251256
    14  C    3.845128   5.775557   4.406360   5.985951   6.641117
    15  C    4.301797   6.473522   5.183802   5.610897   7.475343
    16  H    5.376586   7.529207   6.239982   6.471930   8.512028
    17  C    3.743092   6.045983   4.907280   4.288695   7.177221
    18  H    4.602962   6.893425   5.847692   4.385992   8.063036
    19  C    2.538645   4.863035   3.820356   3.219954   6.041103
    20  H    2.737211   4.910778   4.119723   2.206581   6.143490
    21  C    1.515553   3.763391   2.530172   3.835491   4.847821
    22  N    3.011554   4.150192   2.794264   6.195686   4.736323
    23  C    6.992647   5.767848   6.950675   6.284050   5.915404
    24  C    5.994449   4.952228   6.070581   5.118646   5.287163
    25  C    4.928960   3.583513   4.795349   4.844098   3.851004
    26  C    5.261672   3.395026   4.764506   5.945527   3.211578
    27  H    4.852912   2.707373   4.114793   6.146859   2.246787
    28  C    6.347032   4.509302   5.841779   6.893277   4.207653
    29  H    6.806962   4.814449   6.126160   7.740847   4.275564
    30  C    7.170917   5.621112   6.886328   7.077275   5.512239
    31  H    8.105930   6.536849   7.786822   8.024842   6.346560
    32  N    6.343436   5.703354   6.661570   4.744453   6.219526
    33  C    7.574159   7.006235   7.949275   5.662274   7.498742
    34  H    7.583722   7.322985   8.120514   5.321780   7.948513
    35  H    8.382305   7.794535   8.756589   6.344303   8.252630
    36  C    4.417786   5.427635   4.141138   7.511877   5.850022
    37  H    5.071872   5.936539   4.687732   8.206869   6.249560
    38  H    4.839216   5.514715   4.374938   8.011851   5.780922
    39  S    8.302261   7.369800   8.455064   6.939557   7.632120
    40  S    5.187159   6.724727   5.363680   7.701453   7.355576
    41  H    5.334257   3.966152   5.163118   5.216877   4.149440
    42  H    2.064319   4.068636   2.891210   4.100440   5.098018
                   11         12         13         14         15
    11  H    0.000000
    12  H    6.259991   0.000000
    13  C    2.684407   7.074822   0.000000
    14  C    4.080030   8.055604   1.446110   0.000000
    15  C    5.078653   7.948294   2.471982   1.370851   0.000000
    16  H    6.088955   8.879500   3.457502   2.141575   1.085288
    17  C    5.086729   6.757902   2.855778   2.427903   1.444093
    18  H    6.108672   6.969266   3.941934   3.397241   2.180476
    19  C    4.181780   5.571940   2.539587   2.844509   2.455801
    20  H    4.694643   4.718685   3.519576   3.930209   3.446032
    21  C    2.749570   5.685998   1.526553   2.561735   2.936366
    22  N    2.069791   7.626396   1.305688   2.368875   3.632898
    23  C    7.831461   3.844866   9.450648  10.556587  10.717861
    24  C    7.014799   2.576467   8.539712   9.675860   9.810731
    25  C    5.703877   2.732680   7.476835   8.722468   9.025248
    26  C    5.513708   4.113118   7.625363   8.911025   9.389466
    27  H    4.749748   4.683224   7.072071   8.414347   9.029815
    28  C    6.530954   4.916427   8.618032   9.842467  10.302216
    29  H    6.680161   5.928233   8.897986  10.121444  10.684819
    30  C    7.657877   4.839509   9.514983  10.660370  10.966638
    31  H    8.510037   5.814214  10.368958  11.477012  11.785006
    32  N    7.654785   2.080215   8.885836   9.945888   9.924881
    33  C    8.939680   3.175295  10.058690  11.034551  10.913070
    34  H    9.116772   3.173547   9.960732  10.820812  10.573288
    35  H    9.752386   3.873247  10.893654  11.888945  11.752399
    36  C    3.302068   9.018578   2.294655   2.572587   3.938718
    37  H    3.782130   9.681300   3.044296   3.332674   4.672134
    38  H    3.494178   9.323908   3.029462   3.311905   4.623124
    39  S    9.376960   4.484429  10.743729  11.745383  11.736934
    40  S    4.738409   9.619035   2.639070   1.777163   2.832311
    41  H    6.045212   3.107182   7.882245   9.179072   9.510202
    42  H    3.063855   5.929074   2.084410   3.073039   3.460639
                   16         17         18         19         20
    16  H    0.000000
    17  C    2.196452   0.000000
    18  H    2.499524   1.087358   0.000000
    19  C    3.421346   1.354123   2.108587   0.000000
    20  H    4.321406   2.131211   2.446586   1.086401   0.000000
    21  C    4.020877   2.507825   3.490488   1.512576   2.224006
    22  N    4.508273   4.158976   5.243691   3.761358   4.656306
    23  C   11.654022   9.770799  10.110147   8.625395   8.009449
    24  C   10.779376   8.800999   9.148504   7.590178   6.919561
    25  C   10.048263   8.138520   8.642908   6.862314   6.333683
    26  C   10.409720   8.691653   9.305512   7.464392   7.120121
    27  H   10.067024   8.461726   9.178477   7.237741   7.030091
    28  C   11.281889   9.626593  10.198173   8.465877   8.121454
    29  H   11.649948  10.135092  10.767304   9.018715   8.783104
    30  C   11.909524  10.166706  10.609431   9.037382   8.562259
    31  H   12.697475  11.019519  11.443864   9.939527   9.485524
    32  N   10.862940   8.781526   9.000633   7.593485   6.780348
    33  C   11.793521   9.724844   9.829638   8.623693   7.762430
    34  H   11.392065   9.336813   9.333038   8.330634   7.426253
    35  H   12.639149  10.526867  10.606436   9.406095   8.503573
    36  C    4.543867   4.868412   5.906299   4.814978   5.811619
    37  H    5.227477   5.615853   6.651871   5.536132   6.515805
    38  H    5.171954   5.546388   6.560371   5.479737   6.441049
    39  S   12.612497  10.673641  10.852107   9.600707   8.861806
    40  S    3.054309   4.135937   5.006082   4.611777   5.695865
    41  H   10.557871   8.609072   9.128967   7.284939   6.733544
    42  H    4.497464   3.046031   3.958065   2.094899   2.616981
                   21         22         23         24         25
    21  C    0.000000
    22  N    2.480922   0.000000
    23  C    8.394887   9.616532   0.000000
    24  C    7.366672   8.772724   1.443940   0.000000
    25  C    6.379003   7.568599   2.576893   1.530303   0.000000
    26  C    6.775470   7.493194   2.844545   2.537515   1.516716
    27  H    6.356297   6.788433   3.929543   3.521075   2.224361
    28  C    7.847002   8.467611   2.426764   2.852611   2.520470
    29  H    8.291873   8.610736   3.396363   3.939340   3.500766
    30  C    8.631251   9.514336   1.370870   2.469452   2.954304
    31  H    9.552240  10.339833   2.142193   3.455605   4.039456
    32  N    7.577530   9.275173   2.370334   1.307617   2.472878
    33  C    8.756894  10.507271   2.572587   2.294067   3.745877
    34  H    8.645825  10.527270   3.302786   3.018294   4.386998
    35  H    9.544024  11.342930   3.341595   3.055397   4.421209
    36  C    3.748018   1.438461  10.877208  10.108385   8.907190
    37  H    4.395431   2.099778  11.566897  10.751079   9.471448
    38  H    4.419572   2.096342  10.824653  10.185853   8.998163
    39  S    9.602029  11.051354   1.778059   2.638208   4.106552
    40  S    4.095360   2.719125  11.813195  11.021071   9.973491
    41  H    6.738572   7.934847   3.245129   2.122546   1.111307
    42  H    1.110704   2.811795   8.822861   7.683313   6.622873
                   26         27         28         29         30
    26  C    0.000000
    27  H    1.086152   0.000000
    28  C    1.354957   2.127351   0.000000
    29  H    2.108795   2.439493   1.087466   0.000000
    30  C    2.456545   3.443093   1.443228   2.179578   0.000000
    31  H    3.422235   4.317323   2.195932   2.498724   1.085488
    32  N    3.759912   4.660030   4.158822   5.245128   3.634079
    33  C    4.814304   5.814825   4.868831   5.908879   3.939861
    34  H    5.486581   6.453581   5.561622   6.584607   4.632602
    35  H    5.529211   6.511806   5.602881   6.634779   4.665512
    36  C    8.716226   7.968756   9.609799   9.645900  10.687738
    37  H    9.268569   8.448322  10.216192  10.228999  11.360900
    38  H    8.637725   7.874088   9.410844   9.336447  10.511862
    39  S    4.612899   5.697475   4.136957   5.008587   2.834030
    40  S    9.950271   9.330661  10.820692  10.943990  11.753867
    41  H    2.157274   2.614698   3.210282   4.121311   3.669599
    42  H    7.110436   6.641684   8.286592   8.765293   9.110216
                   31         32         33         34         35
    31  H    0.000000
    32  N    4.510806   0.000000
    33  C    4.546878   1.439292   0.000000
    34  H    5.189054   2.099870   1.097428   0.000000
    35  H    5.217036   2.098944   1.096315   1.778068   0.000000
    36  C   11.452846  10.653617  11.859647  11.857943  12.721988
    37  H   12.149296  11.297860  12.559286  12.612193  13.377048
    38  H   11.199914  10.838343  12.005788  12.026066  12.911002
    39  S    3.057430   2.721178   1.884464   2.464885   2.464529
    40  S   12.511995  11.420282  12.533908  12.372846  13.415522
    41  H    4.725862   2.731721   4.059376   4.817248   4.490425
    42  H   10.084175   7.821827   9.068838   9.016331   9.763629
                   36         37         38         39         40
    36  C    0.000000
    37  H    1.096912   0.000000
    38  H    1.096423   1.778031   0.000000
    39  S   12.324461  13.062845  12.304708   0.000000
    40  S    1.883779   2.466254   2.463080  13.103007   0.000000
    41  H    9.300816   9.760901   9.468879   4.625684  10.432957
    42  H    4.055526   4.449987   4.880723  10.042436   4.487401
                   41         42
    41  H    0.000000
    42  H    6.803968   0.000000
 Stoichiometry    C20H14N4O2S2(1-,2)
 Framework group  C1[X(C20H14N4O2S2)]
 Deg. of freedom   120
 Full point group                 C1      NOp   1
 Largest Abelian subgroup         C1      NOp   1
 Largest concise Abelian subgroup C1      NOp   1
                         Standard orientation:                         
 ---------------------------------------------------------------------
 Center     Atomic      Atomic             Coordinates (Angstroms)
 Number     Number       Type             X           Y           Z
 ---------------------------------------------------------------------
      1          7           0       -1.698896   -1.275599   -0.687570
      2          6           0       -0.367244   -1.730441   -0.599016
      3          6           0       -1.811569    0.104322   -0.710755
      4          6           0       -0.524222    0.616547   -0.639518
      5          6           0        0.402899   -0.493916   -0.558059
      6          6           0        1.691371    0.018188   -0.528393
      7          6           0        0.245772    1.848496   -0.681457
      8          7           0        1.580949    1.395490   -0.626032
      9          8           0       -0.059534   -2.932552   -0.603710
     10          8           0       -0.063378    3.049548   -0.755513
     11          1           0        2.395066    2.001000   -0.579242
     12          1           0       -2.515404   -1.877746   -0.752725
     13          6           0        4.238636    0.116219   -0.074376
     14          6           0        5.330810   -0.598341    0.548356
     15          6           0        5.273833   -1.939110    0.828222
     16          1           0        6.100277   -2.441810    1.320292
     17          6           0        4.077673   -2.677213    0.496847
     18          1           0        4.028510   -3.728093    0.771768
     19          6           0        3.015951   -2.109139   -0.122577
     20          1           0        2.116065   -2.679044   -0.336309
     21          6           0        3.039024   -0.672058   -0.593908
     22          7           0        4.349287    1.405785   -0.246414
     23          6           0       -5.170060    0.467209    0.742929
     24          6           0       -4.296615   -0.080349   -0.268128
     25          6           0       -3.168618    0.773894   -0.850982
     26          6           0       -3.105827    2.160221   -0.238950
     27          1           0       -2.287629    2.796141   -0.564348
     28          6           0       -3.982049    2.582938    0.704158
     29          1           0       -3.869339    3.582082    1.118392
     30          6           0       -5.046591    1.750082    1.210131
     31          1           0       -5.725058    2.137884    1.963508
     32          7           0       -4.512018   -1.296568   -0.697402
     33          6           0       -5.605713   -1.948665   -0.026461
     34          1           0       -5.257866   -2.827604    0.531049
     35          1           0       -6.368170   -2.275426   -0.743255
     36          6           0        5.594788    1.941323    0.234311
     37          1           0        6.152759    2.430209   -0.573696
     38          1           0        5.422727    2.677268    1.028618
     39         16           0       -6.396391   -0.741738    1.185710
     40         16           0        6.641405    0.538989    0.931933
     41          1           0       -3.383965    0.860091   -1.937812
     42          1           0        3.226375   -0.731924   -1.687059
 ---------------------------------------------------------------------
 Rotational constants (GHZ):           0.3984599           0.0696301           0.0623963
 Standard basis: 6-31+G(d,p) (6D, 7F)
 There are   610 symmetry adapted cartesian basis functions of A   symmetry.
 There are   610 symmetry adapted basis functions of A   symmetry.
   610 basis functions,  1042 primitive gaussians,   610 cartesian basis functions
   106 alpha electrons      105 beta electrons
       nuclear repulsion energy      2698.7273551485 Hartrees.
 NAtoms=   42 NActive=   42 NUniq=   42 SFac= 1.00D+00 NAtFMM=   60 NAOKFM=F Big=F
 Integral buffers will be    131072 words long.
 Raffenetti 2 integral format.
 Two-electron integral symmetry is turned on.
 One-electron integrals computed using PRISM.
 NBasis=   610 RedAO= T EigKep=  1.09D-06  NBF=   610
 NBsUse=   606 1.00D-06 EigRej=  9.50D-07 NBFU=   606
 ExpMin= 4.05D-02 ExpMax= 2.19D+04 ExpMxC= 3.30D+03 IAcc=3 IRadAn=         5 AccDes= 0.00D+00
 Harris functional with IExCor=  402 and IRadAn=       5 diagonalized for initial guess.
 HarFok:  IExCor=  402 AccDes= 0.00D+00 IRadAn=         5 IDoV= 1 UseB2=F ITyADJ=14
 ICtDFT=  3500011 ScaDFX=  1.000000  1.000000  1.000000  1.000000
 FoFCou: FMM=F IPFlag=           0 FMFlag=      100000 FMFlg1=           0
         NFxFlg=           0 DoJE=T BraDBF=F KetDBF=T FulRan=T
         wScrn=  0.000000 ICntrl=       500 IOpCl=  0 I1Cent=   200000004 NGrid=           0
         NMat0=    1 NMatS0=      1 NMatT0=    0 NMatD0=    1 NMtDS0=    0 NMtDT0=    0
 Petite list used in FoFCou.
 Initial guess <Sx>= 0.0000 <Sy>= 0.0000 <Sz>= 0.5000 <S**2>= 0.7500 S= 0.5000
 Requested convergence on RMS density matrix=1.00D-08 within 128 cycles.
 Requested convergence on MAX density matrix=1.00D-06.
 Requested convergence on             energy=1.00D-06.
 No special actions if energy rises.
 EnCoef did     4 forward-backward iterations
 EnCoef did     4 forward-backward iterations
 EnCoef did     7 forward-backward iterations
 Restarting incremental Fock formation.
 SCF Done:  E(UB3LYP) =  -1936.44384200     A.U. after   34 cycles
            NFock= 34  Conv=0.57D-08     -V/T= 2.0069
 <Sx>= 0.0000 <Sy>= 0.0000 <Sz>= 0.5000 <S**2>= 0.7574 S= 0.5037
 <L.S>=  0.00000000000    
 Annihilation of the first spin contaminant:
 S**2 before annihilation     0.7574,   after     0.7500

 **********************************************************************

            Population analysis using the SCF density.

 **********************************************************************

 Orbital symmetries:
 Alpha Orbitals:
       Occupied  (A) (A) (A) (A) (A) (A) (A) (A) (A) (A) (A) (A)
                 (A) (A) (A) (A) (A) (A) (A) (A) (A) (A) (A) (A)
                 (A) (A) (A) (A) (A) (A) (A) (A) (A) (A) (A) (A)
                 (A) (A) (A) (A) (A) (A) (A) (A) (A) (A) (A) (A)
                 (A) (A) (A) (A) (A) (A) (A) (A) (A) (A) (A) (A)
                 (A) (A) (A) (A) (A) (A) (A) (A) (A) (A) (A) (A)
                 (A) (A) (A) (A) (A) (A) (A) (A) (A) (A) (A) (A)
                 (A) (A) (A) (A) (A) (A) (A) (A) (A) (A) (A) (A)
                 (A) (A) (A) (A) (A) (A) (A) (A) (A) (A)
       Virtual   (A) (A) (A) (A) (A) (A) (A) (A) (A) (A) (A) (A)
                 (A) (A) (A) (A) (A) (A) (A) (A) (A) (A) (A) (A)
                 (A) (A) (A) (A) (A) (A) (A) (A) (A) (A) (A) (A)
                 (A) (A) (A) (A) (A) (A) (A) (A) (A) (A) (A) (A)
                 (A) (A) (A) (A) (A) (A) (A) (A) (A) (A) (A) (A)
                 (A) (A) (A) (A) (A) (A) (A) (A) (A) (A) (A) (A)
                 (A) (A) (A) (A) (A) (A) (A) (A) (A) (A) (A) (A)
                 (A) (A) (A) (A) (A) (A) (A) (A) (A) (A) (A) (A)
                 (A) (A) (A) (A) (A) (A) (A) (A) (A) (A) (A) (A)
                 (A) (A) (A) (A) (A) (A) (A) (A) (A) (A) (A) (A)
                 (A) (A) (A) (A) (A) (A) (A) (A) (A) (A) (A) (A)
                 (A) (A) (A) (A) (A) (A) (A) (A) (A) (A) (A) (A)
                 (A) (A) (A) (A) (A) (A) (A) (A) (A) (A) (A) (A)
                 (A) (A) (A) (A) (A) (A) (A) (A) (A) (A) (A) (A)
                 (A) (A) (A) (A) (A) (A) (A) (A) (A) (A) (A) (A)
                 (A) (A) (A) (A) (A) (A) (A) (A) (A) (A) (A) (A)
                 (A) (A) (A) (A) (A) (A) (A) (A) (A) (A) (A) (A)
                 (A) (A) (A) (A) (A) (A) (A) (A) (A) (A) (A) (A)
                 (A) (A) (A) (A) (A) (A) (A) (A) (A) (A) (A) (A)
                 (A) (A) (A) (A) (A) (A) (A) (A) (A) (A) (A) (A)
                 (A) (A) (A) (A) (A) (A) (A) (A) (A) (A) (A) (A)
                 (A) (A) (A) (A) (A) (A) (A) (A) (A) (A) (A) (A)
                 (A) (A) (A) (A) (A) (A) (A) (A) (A) (A) (A) (A)
                 (A) (A) (A) (A) (A) (A) (A) (A) (A) (A) (A) (A)
                 (A) (A) (A) (A) (A) (A) (A) (A) (A) (A) (A) (A)
                 (A) (A) (A) (A) (A) (A) (A) (A) (A) (A) (A) (A)
                 (A) (A) (A) (A) (A) (A) (A) (A) (A) (A) (A) (A)
                 (A) (A) (A) (A) (A) (A) (A) (A) (A) (A) (A) (A)
                 (A) (A) (A) (A) (A) (A) (A) (A) (A) (A) (A) (A)
                 (A) (A) (A) (A) (A) (A) (A) (A) (A) (A) (A) (A)
                 (A) (A) (A) (A) (A) (A) (A) (A) (A) (A) (A) (A)
                 (A) (A) (A) (A) (A) (A) (A) (A) (A) (A) (A) (A)
                 (A) (A) (A) (A) (A) (A) (A) (A) (A) (A) (A) (A)
                 (A) (A) (A) (A) (A) (A) (A) (A) (A) (A) (A) (A)
                 (A) (A) (A) (A) (A) (A) (A) (A) (A) (A) (A) (A)
                 (A) (A) (A) (A) (A) (A) (A) (A) (A) (A) (A) (A)
                 (A) (A) (A) (A) (A) (A) (A) (A) (A) (A) (A) (A)
                 (A) (A) (A) (A) (A) (A) (A) (A) (A) (A) (A) (A)
                 (A) (A) (A) (A) (A) (A) (A) (A) (A) (A) (A) (A)
                 (A) (A) (A) (A) (A) (A) (A) (A) (A) (A) (A) (A)
                 (A) (A) (A) (A) (A) (A) (A) (A) (A) (A) (A) (A)
                 (A) (A) (A) (A) (A) (A) (A) (A)
 Beta  Orbitals:
       Occupied  (A) (A) (A) (A) (A) (A) (A) (A) (A) (A) (A) (A)
                 (A) (A) (A) (A) (A) (A) (A) (A) (A) (A) (A) (A)
                 (A) (A) (A) (A) (A) (A) (A) (A) (A) (A) (A) (A)
                 (A) (A) (A) (A) (A) (A) (A) (A) (A) (A) (A) (A)
                 (A) (A) (A) (A) (A) (A) (A) (A) (A) (A) (A) (A)
                 (A) (A) (A) (A) (A) (A) (A) (A) (A) (A) (A) (A)
                 (A) (A) (A) (A) (A) (A) (A) (A) (A) (A) (A) (A)
                 (A) (A) (A) (A) (A) (A) (A) (A) (A) (A) (A) (A)
                 (A) (A) (A) (A) (A) (A) (A) (A) (A)
       Virtual   (A) (A) (A) (A) (A) (A) (A) (A) (A) (A) (A) (A)
                 (A) (A) (A) (A) (A) (A) (A) (A) (A) (A) (A) (A)
                 (A) (A) (A) (A) (A) (A) (A) (A) (A) (A) (A) (A)
                 (A) (A) (A) (A) (A) (A) (A) (A) (A) (A) (A) (A)
                 (A) (A) (A) (A) (A) (A) (A) (A) (A) (A) (A) (A)
                 (A) (A) (A) (A) (A) (A) (A) (A) (A) (A) (A) (A)
                 (A) (A) (A) (A) (A) (A) (A) (A) (A) (A) (A) (A)
                 (A) (A) (A) (A) (A) (A) (A) (A) (A) (A) (A) (A)
                 (A) (A) (A) (A) (A) (A) (A) (A) (A) (A) (A) (A)
                 (A) (A) (A) (A) (A) (A) (A) (A) (A) (A) (A) (A)
                 (A) (A) (A) (A) (A) (A) (A) (A) (A) (A) (A) (A)
                 (A) (A) (A) (A) (A) (A) (A) (A) (A) (A) (A) (A)
                 (A) (A) (A) (A) (A) (A) (A) (A) (A) (A) (A) (A)
                 (A) (A) (A) (A) (A) (A) (A) (A) (A) (A) (A) (A)
                 (A) (A) (A) (A) (A) (A) (A) (A) (A) (A) (A) (A)
                 (A) (A) (A) (A) (A) (A) (A) (A) (A) (A) (A) (A)
                 (A) (A) (A) (A) (A) (A) (A) (A) (A) (A) (A) (A)
                 (A) (A) (A) (A) (A) (A) (A) (A) (A) (A) (A) (A)
                 (A) (A) (A) (A) (A) (A) (A) (A) (A) (A) (A) (A)
                 (A) (A) (A) (A) (A) (A) (A) (A) (A) (A) (A) (A)
                 (A) (A) (A) (A) (A) (A) (A) (A) (A) (A) (A) (A)
                 (A) (A) (A) (A) (A) (A) (A) (A) (A) (A) (A) (A)
                 (A) (A) (A) (A) (A) (A) (A) (A) (A) (A) (A) (A)
                 (A) (A) (A) (A) (A) (A) (A) (A) (A) (A) (A) (A)
                 (A) (A) (A) (A) (A) (A) (A) (A) (A) (A) (A) (A)
                 (A) (A) (A) (A) (A) (A) (A) (A) (A) (A) (A) (A)
                 (A) (A) (A) (A) (A) (A) (A) (A) (A) (A) (A) (A)
                 (A) (A) (A) (A) (A) (A) (A) (A) (A) (A) (A) (A)
                 (A) (A) (A) (A) (A) (A) (A) (A) (A) (A) (A) (A)
                 (A) (A) (A) (A) (A) (A) (A) (A) (A) (A) (A) (A)
                 (A) (A) (A) (A) (A) (A) (A) (A) (A) (A) (A) (A)
                 (A) (A) (A) (A) (A) (A) (A) (A) (A) (A) (A) (A)
                 (A) (A) (A) (A) (A) (A) (A) (A) (A) (A) (A) (A)
                 (A) (A) (A) (A) (A) (A) (A) (A) (A) (A) (A) (A)
                 (A) (A) (A) (A) (A) (A) (A) (A) (A) (A) (A) (A)
                 (A) (A) (A) (A) (A) (A) (A) (A) (A) (A) (A) (A)
                 (A) (A) (A) (A) (A) (A) (A) (A) (A) (A) (A) (A)
                 (A) (A) (A) (A) (A) (A) (A) (A) (A) (A) (A) (A)
                 (A) (A) (A) (A) (A) (A) (A) (A) (A) (A) (A) (A)
                 (A) (A) (A) (A) (A) (A) (A) (A) (A) (A) (A) (A)
                 (A) (A) (A) (A) (A) (A) (A) (A) (A) (A) (A) (A)
                 (A) (A) (A) (A) (A) (A) (A) (A) (A)
 The electronic state is 2-A.
 Alpha  occ. eigenvalues --  -88.80395 -88.79717 -19.01709 -19.01316 -14.26677
 Alpha  occ. eigenvalues --  -14.26600 -14.24822 -14.24080 -10.18533 -10.18042
 Alpha  occ. eigenvalues --  -10.16686 -10.16057 -10.15931 -10.15032 -10.14940
 Alpha  occ. eigenvalues --  -10.14770 -10.13694 -10.13648 -10.12893 -10.12852
 Alpha  occ. eigenvalues --  -10.11062 -10.10365 -10.10237 -10.09636 -10.09542
 Alpha  occ. eigenvalues --  -10.08947 -10.07901 -10.07720  -7.86398  -7.85723
 Alpha  occ. eigenvalues --   -5.82864  -5.82564  -5.82188  -5.81931  -5.81890
 Alpha  occ. eigenvalues --   -5.81257  -0.92818  -0.92130  -0.86646  -0.86198
 Alpha  occ. eigenvalues --   -0.85200  -0.84223  -0.75306  -0.74501  -0.71166
 Alpha  occ. eigenvalues --   -0.70455  -0.68959  -0.66067  -0.65339  -0.65035
 Alpha  occ. eigenvalues --   -0.64446  -0.60298  -0.57776  -0.55949  -0.55493
 Alpha  occ. eigenvalues --   -0.54260  -0.51261  -0.50037  -0.49019  -0.48348
 Alpha  occ. eigenvalues --   -0.45547  -0.42565  -0.41557  -0.40686  -0.39743
 Alpha  occ. eigenvalues --   -0.39103  -0.38924  -0.38502  -0.38376  -0.37623
 Alpha  occ. eigenvalues --   -0.37299  -0.36701  -0.35994  -0.35824  -0.34760
 Alpha  occ. eigenvalues --   -0.33394  -0.32871  -0.31963  -0.31827  -0.30687
 Alpha  occ. eigenvalues --   -0.30497  -0.30043  -0.29871  -0.29119  -0.27965
 Alpha  occ. eigenvalues --   -0.26770  -0.26431  -0.26041  -0.25588  -0.24685
 Alpha  occ. eigenvalues --   -0.23907  -0.22054  -0.21935  -0.21688  -0.21291
 Alpha  occ. eigenvalues --   -0.19054  -0.18455  -0.18333  -0.17874  -0.16125
 Alpha  occ. eigenvalues --   -0.14700  -0.14607  -0.11049  -0.10406  -0.09599
 Alpha  occ. eigenvalues --   -0.01042
 Alpha virt. eigenvalues --    0.00776   0.02183   0.06892   0.07403   0.07922
 Alpha virt. eigenvalues --    0.08384   0.09331   0.09782   0.09924   0.10210
 Alpha virt. eigenvalues --    0.10376   0.10512   0.10833   0.11447   0.11760
 Alpha virt. eigenvalues --    0.11797   0.12416   0.12802   0.13114   0.13431
 Alpha virt. eigenvalues --    0.13727   0.14083   0.14221   0.14315   0.14455
 Alpha virt. eigenvalues --    0.14784   0.15433   0.15989   0.16573   0.16684
 Alpha virt. eigenvalues --    0.17101   0.17344   0.17694   0.18204   0.18482
 Alpha virt. eigenvalues --    0.18632   0.18781   0.19059   0.19304   0.19502
 Alpha virt. eigenvalues --    0.19772   0.19970   0.20048   0.20431   0.20487
 Alpha virt. eigenvalues --    0.21262   0.21403   0.22190   0.22378   0.22569
 Alpha virt. eigenvalues --    0.22897   0.23531   0.23720   0.23906   0.24191
 Alpha virt. eigenvalues --    0.24340   0.24545   0.24808   0.25340   0.25441
 Alpha virt. eigenvalues --    0.25580   0.25979   0.26116   0.26268   0.26427
 Alpha virt. eigenvalues --    0.26907   0.27017   0.27277   0.27457   0.27514
 Alpha virt. eigenvalues --    0.27913   0.28406   0.28492   0.28597   0.29620
 Alpha virt. eigenvalues --    0.29748   0.29901   0.30098   0.30149   0.30557
 Alpha virt. eigenvalues --    0.30796   0.31137   0.31316   0.31861   0.31895
 Alpha virt. eigenvalues --    0.32250   0.32359   0.32612   0.32967   0.33098
 Alpha virt. eigenvalues --    0.33301   0.33558   0.33836   0.33939   0.34238
 Alpha virt. eigenvalues --    0.34396   0.34732   0.34818   0.35320   0.35412
 Alpha virt. eigenvalues --    0.35566   0.36036   0.36323   0.36529   0.36884
 Alpha virt. eigenvalues --    0.37137   0.37464   0.37601   0.38165   0.38305
 Alpha virt. eigenvalues --    0.38728   0.38933   0.39188   0.39371   0.39704
 Alpha virt. eigenvalues --    0.39982   0.40433   0.40754   0.41054   0.41548
 Alpha virt. eigenvalues --    0.41633   0.41653   0.42052   0.42310   0.43093
 Alpha virt. eigenvalues --    0.43259   0.43790   0.44213   0.44537   0.45079
 Alpha virt. eigenvalues --    0.45356   0.45808   0.46290   0.47130   0.47185
 Alpha virt. eigenvalues --    0.47652   0.47774   0.48088   0.48470   0.48729
 Alpha virt. eigenvalues --    0.49880   0.50413   0.50844   0.51333   0.52346
 Alpha virt. eigenvalues --    0.52938   0.53561   0.54048   0.54458   0.54764
 Alpha virt. eigenvalues --    0.55855   0.56490   0.57078   0.58028   0.58320
 Alpha virt. eigenvalues --    0.58745   0.59643   0.60646   0.60901   0.61330
 Alpha virt. eigenvalues --    0.61834   0.62246   0.62501   0.66521   0.67251
 Alpha virt. eigenvalues --    0.68214   0.68446   0.68676   0.69338   0.71379
 Alpha virt. eigenvalues --    0.72950   0.73132   0.73672   0.75464   0.76543
 Alpha virt. eigenvalues --    0.76824   0.77378   0.77929   0.78887   0.79388
 Alpha virt. eigenvalues --    0.79826   0.80091   0.80405   0.80673   0.81120
 Alpha virt. eigenvalues --    0.82168   0.82843   0.83613   0.84003   0.84600
 Alpha virt. eigenvalues --    0.85029   0.85560   0.85851   0.86608   0.86871
 Alpha virt. eigenvalues --    0.87180   0.88281   0.88789   0.89126   0.90030
 Alpha virt. eigenvalues --    0.90273   0.91252   0.91978   0.92891   0.93320
 Alpha virt. eigenvalues --    0.93776   0.94132   0.95014   0.95443   0.96655
 Alpha virt. eigenvalues --    0.97348   0.98238   0.99500   0.99580   1.00193
 Alpha virt. eigenvalues --    1.00453   1.01576   1.02591   1.03280   1.03451
 Alpha virt. eigenvalues --    1.04014   1.04336   1.05027   1.05952   1.06363
 Alpha virt. eigenvalues --    1.06731   1.07402   1.07894   1.08738   1.08788
 Alpha virt. eigenvalues --    1.09245   1.09603   1.10336   1.10719   1.11260
 Alpha virt. eigenvalues --    1.13534   1.14103   1.15206   1.15361   1.15904
 Alpha virt. eigenvalues --    1.16992   1.17457   1.18651   1.18972   1.19479
 Alpha virt. eigenvalues --    1.20041   1.20246   1.21233   1.21575   1.21803
 Alpha virt. eigenvalues --    1.22769   1.23734   1.24280   1.24894   1.26104
 Alpha virt. eigenvalues --    1.27332   1.27751   1.28912   1.29508   1.30655
 Alpha virt. eigenvalues --    1.31809   1.32473   1.33186   1.34067   1.35036
 Alpha virt. eigenvalues --    1.36506   1.37126   1.37643   1.39162   1.39239
 Alpha virt. eigenvalues --    1.39666   1.40188   1.40485   1.41605   1.42549
 Alpha virt. eigenvalues --    1.43358   1.44300   1.44968   1.46179   1.46568
 Alpha virt. eigenvalues --    1.46873   1.47342   1.47707   1.48031   1.49073
 Alpha virt. eigenvalues --    1.50030   1.50327   1.50811   1.51367   1.51479
 Alpha virt. eigenvalues --    1.52296   1.53131   1.53855   1.54180   1.54394
 Alpha virt. eigenvalues --    1.55464   1.57030   1.57591   1.60350   1.60802
 Alpha virt. eigenvalues --    1.61337   1.61953   1.64610   1.66112   1.67147
 Alpha virt. eigenvalues --    1.68377   1.68524   1.69905   1.72438   1.75256
 Alpha virt. eigenvalues --    1.76571   1.77786   1.78513   1.80320   1.81574
 Alpha virt. eigenvalues --    1.82018   1.83361   1.85221   1.86453   1.87626
 Alpha virt. eigenvalues --    1.88200   1.89920   1.91529   1.91871   1.92852
 Alpha virt. eigenvalues --    1.93445   1.94508   1.95007   1.96154   1.97459
 Alpha virt. eigenvalues --    1.97917   1.98688   1.99241   1.99647   2.00649
 Alpha virt. eigenvalues --    2.01406   2.02031   2.02375   2.04274   2.04817
 Alpha virt. eigenvalues --    2.05322   2.05989   2.07027   2.07505   2.07739
 Alpha virt. eigenvalues --    2.08937   2.10476   2.11614   2.11926   2.12326
 Alpha virt. eigenvalues --    2.12846   2.13525   2.14089   2.14753   2.15826
 Alpha virt. eigenvalues --    2.16710   2.18431   2.18857   2.19804   2.20092
 Alpha virt. eigenvalues --    2.20730   2.21053   2.21304   2.22873   2.23541
 Alpha virt. eigenvalues --    2.23776   2.25025   2.25509   2.27431   2.27904
 Alpha virt. eigenvalues --    2.28806   2.29374   2.31679   2.34417   2.35427
 Alpha virt. eigenvalues --    2.36363   2.38172   2.38757   2.39354   2.40180
 Alpha virt. eigenvalues --    2.40464   2.42233   2.42773   2.45230   2.46256
 Alpha virt. eigenvalues --    2.48048   2.48861   2.49672   2.51049   2.52471
 Alpha virt. eigenvalues --    2.53471   2.54083   2.55064   2.56399   2.57187
 Alpha virt. eigenvalues --    2.57799   2.58324   2.58429   2.59555   2.60312
 Alpha virt. eigenvalues --    2.61450   2.61816   2.62775   2.63646   2.64017
 Alpha virt. eigenvalues --    2.64923   2.65959   2.66977   2.67899   2.68865
 Alpha virt. eigenvalues --    2.69628   2.70907   2.71628   2.72583   2.73074
 Alpha virt. eigenvalues --    2.73708   2.75624   2.76333   2.77210   2.78667
 Alpha virt. eigenvalues --    2.79455   2.80181   2.82070   2.83109   2.84386
 Alpha virt. eigenvalues --    2.84754   2.86836   2.87806   2.88074   2.89132
 Alpha virt. eigenvalues --    2.89408   2.91713   2.92484   2.93922   2.94413
 Alpha virt. eigenvalues --    2.96753   2.98315   3.01318   3.01999   3.03371
 Alpha virt. eigenvalues --    3.05136   3.06932   3.09822   3.11500   3.12720
 Alpha virt. eigenvalues --    3.13998   3.15906   3.16314   3.21057   3.22360
 Alpha virt. eigenvalues --    3.26736   3.28892   3.32976   3.34285   3.35985
 Alpha virt. eigenvalues --    3.37618   3.38648   3.38967   3.40092   3.40729
 Alpha virt. eigenvalues --    3.46132   3.50431   3.51815   3.52632   3.53425
 Alpha virt. eigenvalues --    3.54116   3.54876   3.57094   3.71594   3.72597
 Alpha virt. eigenvalues --    3.83209   3.83262   4.07782   4.08640   4.32763
 Alpha virt. eigenvalues --    4.34433   4.36290   4.40717   4.41646   4.44519
 Alpha virt. eigenvalues --    4.47334   4.47919   4.49086   4.50617   4.55201
 Alpha virt. eigenvalues --    4.57017   4.57599   4.60437   4.62456   4.62901
 Alpha virt. eigenvalues --    4.64078   4.66732   4.69135   4.74704   4.79778
 Alpha virt. eigenvalues --    4.88364   4.96009   5.00587   5.09646   5.20046
  Beta  occ. eigenvalues --  -88.80395 -88.79715 -19.01635 -19.01199 -14.26694
  Beta  occ. eigenvalues --  -14.26620 -14.24658 -14.23893 -10.18486 -10.17965
  Beta  occ. eigenvalues --  -10.16695 -10.16066 -10.15859 -10.14951 -10.14707
  Beta  occ. eigenvalues --  -10.14576 -10.13721 -10.13623 -10.12894 -10.12860
  Beta  occ. eigenvalues --  -10.10928 -10.10277 -10.10234 -10.09574 -10.09503
  Beta  occ. eigenvalues --  -10.08818 -10.07939 -10.07743  -7.86397  -7.85721
  Beta  occ. eigenvalues --   -5.82864  -5.82564  -5.82188  -5.81927  -5.81889
  Beta  occ. eigenvalues --   -5.81249  -0.92681  -0.91944  -0.86423  -0.85989
  Beta  occ. eigenvalues --   -0.84988  -0.84062  -0.75106  -0.74281  -0.71049
  Beta  occ. eigenvalues --   -0.70324  -0.68949  -0.65900  -0.65186  -0.64871
  Beta  occ. eigenvalues --   -0.64300  -0.60029  -0.57473  -0.55862  -0.55400
  Beta  occ. eigenvalues --   -0.54124  -0.51082  -0.49804  -0.48855  -0.48174
  Beta  occ. eigenvalues --   -0.45435  -0.42498  -0.41446  -0.40536  -0.39559
  Beta  occ. eigenvalues --   -0.38916  -0.38704  -0.38342  -0.38213  -0.37453
  Beta  occ. eigenvalues --   -0.37172  -0.36508  -0.35862  -0.35634  -0.34578
  Beta  occ. eigenvalues --   -0.33298  -0.32601  -0.31840  -0.31693  -0.30601
  Beta  occ. eigenvalues --   -0.30139  -0.29935  -0.29808  -0.29051  -0.27806
  Beta  occ. eigenvalues --   -0.26646  -0.25986  -0.25867  -0.25228  -0.24595
  Beta  occ. eigenvalues --   -0.23799  -0.21536  -0.21371  -0.21078  -0.20593
  Beta  occ. eigenvalues --   -0.18866  -0.18203  -0.18120  -0.17563  -0.16041
  Beta  occ. eigenvalues --   -0.14777  -0.14514  -0.10448  -0.09762  -0.08885
  Beta virt. eigenvalues --    0.02428   0.02793   0.03628   0.06905   0.07414
  Beta virt. eigenvalues --    0.07926   0.08376   0.09609   0.10090   0.10200
  Beta virt. eigenvalues --    0.10360   0.10638   0.10733   0.10846   0.11500
  Beta virt. eigenvalues --    0.11914   0.11963   0.12497   0.12852   0.13130
  Beta virt. eigenvalues --    0.13464   0.13812   0.14133   0.14250   0.14324
  Beta virt. eigenvalues --    0.14475   0.14807   0.15434   0.15997   0.16619
  Beta virt. eigenvalues --    0.16713   0.17122   0.17380   0.17728   0.18306
  Beta virt. eigenvalues --    0.18538   0.18635   0.19039   0.19252   0.19417
  Beta virt. eigenvalues --    0.19545   0.19869   0.20054   0.20264   0.20518
  Beta virt. eigenvalues --    0.20565   0.21342   0.21486   0.22230   0.22435
  Beta virt. eigenvalues --    0.22818   0.22916   0.23603   0.23784   0.23957
  Beta virt. eigenvalues --    0.24255   0.24409   0.24592   0.24838   0.25422
  Beta virt. eigenvalues --    0.25478   0.25610   0.26030   0.26158   0.26363
  Beta virt. eigenvalues --    0.26476   0.26954   0.27123   0.27325   0.27544
  Beta virt. eigenvalues --    0.27613   0.27938   0.28475   0.28512   0.28673
  Beta virt. eigenvalues --    0.29657   0.29787   0.29935   0.30132   0.30189
  Beta virt. eigenvalues --    0.30589   0.30860   0.31166   0.31354   0.31902
  Beta virt. eigenvalues --    0.31942   0.32310   0.32407   0.32704   0.33016
  Beta virt. eigenvalues --    0.33130   0.33357   0.33590   0.33880   0.33982
  Beta virt. eigenvalues --    0.34273   0.34499   0.34771   0.34884   0.35365
  Beta virt. eigenvalues --    0.35451   0.35612   0.36117   0.36408   0.36605
  Beta virt. eigenvalues --    0.36947   0.37196   0.37514   0.37693   0.38218
  Beta virt. eigenvalues --    0.38349   0.38785   0.39033   0.39275   0.39470
  Beta virt. eigenvalues --    0.39765   0.40019   0.40513   0.40869   0.41108
  Beta virt. eigenvalues --    0.41619   0.41697   0.41712   0.42143   0.42421
  Beta virt. eigenvalues --    0.43158   0.43318   0.43862   0.44308   0.44605
  Beta virt. eigenvalues --    0.45158   0.45413   0.45897   0.46374   0.47210
  Beta virt. eigenvalues --    0.47264   0.47719   0.47863   0.48161   0.48546
  Beta virt. eigenvalues --    0.48781   0.49955   0.50485   0.50942   0.51388
  Beta virt. eigenvalues --    0.52429   0.53104   0.53628   0.54167   0.54582
  Beta virt. eigenvalues --    0.54817   0.55928   0.56558   0.57151   0.58097
  Beta virt. eigenvalues --    0.58404   0.58816   0.59703   0.60700   0.60988
  Beta virt. eigenvalues --    0.61379   0.61902   0.62348   0.62578   0.66581
  Beta virt. eigenvalues --    0.67301   0.68296   0.68580   0.68765   0.69440
  Beta virt. eigenvalues --    0.71412   0.72984   0.73180   0.73725   0.75612
  Beta virt. eigenvalues --    0.76599   0.76905   0.77488   0.78077   0.79095
  Beta virt. eigenvalues --    0.79556   0.79960   0.80284   0.80528   0.80832
  Beta virt. eigenvalues --    0.81322   0.82416   0.83090   0.83697   0.84268
  Beta virt. eigenvalues --    0.84693   0.85160   0.85735   0.85995   0.86733
  Beta virt. eigenvalues --    0.87125   0.87379   0.88374   0.88932   0.89298
  Beta virt. eigenvalues --    0.90126   0.90341   0.91418   0.92066   0.93109
  Beta virt. eigenvalues --    0.93389   0.93911   0.94305   0.95157   0.95574
  Beta virt. eigenvalues --    0.96876   0.97440   0.98356   0.99583   0.99630
  Beta virt. eigenvalues --    1.00243   1.00563   1.01725   1.02685   1.03377
  Beta virt. eigenvalues --    1.03524   1.04096   1.04451   1.05143   1.05993
  Beta virt. eigenvalues --    1.06445   1.06882   1.07498   1.07975   1.08805
  Beta virt. eigenvalues --    1.08907   1.09371   1.09699   1.10443   1.10851
  Beta virt. eigenvalues --    1.11365   1.13664   1.14294   1.15339   1.15466
  Beta virt. eigenvalues --    1.15992   1.17111   1.17703   1.18835   1.19088
  Beta virt. eigenvalues --    1.19554   1.20129   1.20388   1.21393   1.21657
  Beta virt. eigenvalues --    1.21942   1.22897   1.23934   1.24390   1.24992
  Beta virt. eigenvalues --    1.26175   1.27442   1.27804   1.29028   1.29609
  Beta virt. eigenvalues --    1.30753   1.31903   1.32631   1.33347   1.34212
  Beta virt. eigenvalues --    1.35155   1.36692   1.37260   1.37833   1.39362
  Beta virt. eigenvalues --    1.39462   1.39927   1.40345   1.40698   1.41769
  Beta virt. eigenvalues --    1.42704   1.43492   1.44433   1.45128   1.46303
  Beta virt. eigenvalues --    1.46727   1.47065   1.47543   1.47873   1.48147
  Beta virt. eigenvalues --    1.49223   1.50171   1.50466   1.50975   1.51540
  Beta virt. eigenvalues --    1.51630   1.52500   1.53254   1.54044   1.54381
  Beta virt. eigenvalues --    1.54540   1.55578   1.57228   1.57779   1.60508
  Beta virt. eigenvalues --    1.60980   1.61515   1.62097   1.64802   1.66324
  Beta virt. eigenvalues --    1.67387   1.68466   1.68665   1.70059   1.72561
  Beta virt. eigenvalues --    1.75432   1.76771   1.77939   1.78656   1.80533
  Beta virt. eigenvalues --    1.81708   1.82138   1.83490   1.85439   1.86658
  Beta virt. eigenvalues --    1.87813   1.88389   1.90120   1.91698   1.92041
  Beta virt. eigenvalues --    1.92989   1.93602   1.94673   1.95185   1.96329
  Beta virt. eigenvalues --    1.97616   1.98151   1.98834   1.99352   1.99757
  Beta virt. eigenvalues --    2.00853   2.01583   2.02153   2.02517   2.04483
  Beta virt. eigenvalues --    2.04957   2.05435   2.06144   2.07198   2.07702
  Beta virt. eigenvalues --    2.07869   2.09093   2.10658   2.11811   2.12123
  Beta virt. eigenvalues --    2.12518   2.12969   2.13691   2.14272   2.14898
  Beta virt. eigenvalues --    2.15986   2.16877   2.18565   2.19014   2.19992
  Beta virt. eigenvalues --    2.20270   2.20926   2.21256   2.21526   2.23151
  Beta virt. eigenvalues --    2.23803   2.24018   2.25270   2.25768   2.27615
  Beta virt. eigenvalues --    2.28018   2.28898   2.29549   2.31797   2.34645
  Beta virt. eigenvalues --    2.35602   2.36580   2.38435   2.38898   2.39526
  Beta virt. eigenvalues --    2.40337   2.40574   2.42401   2.42999   2.45406
  Beta virt. eigenvalues --    2.46426   2.48247   2.49000   2.49807   2.51167
  Beta virt. eigenvalues --    2.52644   2.53589   2.54334   2.55187   2.56668
  Beta virt. eigenvalues --    2.57391   2.57967   2.58519   2.58688   2.59716
  Beta virt. eigenvalues --    2.60442   2.61633   2.62001   2.63014   2.63865
  Beta virt. eigenvalues --    2.64204   2.65096   2.66096   2.67111   2.68070
  Beta virt. eigenvalues --    2.68965   2.69743   2.71093   2.71815   2.72690
  Beta virt. eigenvalues --    2.73170   2.73824   2.75759   2.76499   2.77406
  Beta virt. eigenvalues --    2.78896   2.79631   2.80384   2.82317   2.83280
  Beta virt. eigenvalues --    2.84575   2.84994   2.87033   2.87911   2.88214
  Beta virt. eigenvalues --    2.89338   2.89585   2.91909   2.92654   2.94214
  Beta virt. eigenvalues --    2.94580   2.96899   2.98506   3.01431   3.02133
  Beta virt. eigenvalues --    3.03483   3.05263   3.07131   3.09988   3.11700
  Beta virt. eigenvalues --    3.12808   3.14087   3.15973   3.16454   3.21125
  Beta virt. eigenvalues --    3.22473   3.26833   3.29055   3.33040   3.34342
  Beta virt. eigenvalues --    3.36056   3.37677   3.38702   3.39047   3.40113
  Beta virt. eigenvalues --    3.40761   3.46190   3.50767   3.51910   3.52688
  Beta virt. eigenvalues --    3.53491   3.54237   3.54952   3.57181   3.71634
  Beta virt. eigenvalues --    3.72623   3.83267   3.83319   4.07795   4.08656
  Beta virt. eigenvalues --    4.32959   4.34631   4.36415   4.40865   4.41800
  Beta virt. eigenvalues --    4.44688   4.47474   4.48021   4.49212   4.50723
  Beta virt. eigenvalues --    4.55282   4.57251   4.57786   4.60538   4.62602
  Beta virt. eigenvalues --    4.63101   4.64179   4.66924   4.69249   4.74855
  Beta virt. eigenvalues --    4.79971   4.88484   4.96112   5.00710   5.09770
  Beta virt. eigenvalues --    5.20161
          Condensed to atoms (all electrons):
               1          2          3          4          5          6
     1  N    7.360892   0.503014  -0.049045  -0.215074  -0.360999   0.039459
     2  C    0.503014  11.761402  -0.012109  -1.376706  -6.125941   0.124751
     3  C   -0.049045  -0.012109  12.735123  -0.502832  -1.475001   0.550455
     4  C   -0.215074  -1.376706  -0.502832  15.838925   3.400126  -0.940970
     5  C   -0.360999  -6.125941  -1.475001   3.400126  17.485988  -0.864164
     6  C    0.039459   0.124751   0.550455  -0.940970  -0.864164  11.010894
     7  C   -0.082411   1.097814   0.420296  -4.500454  -1.868698  -0.653832
     8  N    0.013668  -0.058005   0.035428  -0.354753  -0.238535   0.012147
     9  O   -0.091777   0.223027   0.003983  -0.016684   0.012296   0.007036
    10  O   -0.005702  -0.000651   0.013813   0.024754   0.013745  -0.005117
    11  H    0.000140   0.007009  -0.006355   0.024050   0.053439  -0.015883
    12  H    0.280059  -0.075377   0.019811   0.058871   0.045709  -0.010952
    13  C    0.067591   0.754873   0.268650  -0.679876  -1.672737  -1.465737
    14  C   -0.001640   0.071741  -0.007587  -0.177572   0.208150  -0.969056
    15  C    0.007625   0.132143   0.033764  -0.188893  -0.079381  -0.287839
    16  H   -0.000000  -0.000074  -0.000018   0.000124  -0.000534   0.002384
    17  C   -0.003110  -0.097729  -0.094511   0.268426   0.531022  -0.039761
    18  H   -0.000010  -0.000542   0.000325   0.000258   0.003616   0.007136
    19  C    0.051450   0.342311   0.020974  -0.465197  -0.840502   0.012740
    20  H    0.001666   0.013108   0.007870   0.001934   0.007931  -0.018218
    21  C   -0.135793  -2.391386  -0.509149  -1.156312   1.552400  -0.275876
    22  N   -0.000453  -0.001870   0.014515  -0.121677   0.074203   0.077130
    23  C    0.043150   0.136247   0.857956   0.280078   0.059646  -0.116905
    24  C    0.127702  -0.475739  -3.528035  -1.293664  -0.011390   0.194503
    25  C   -0.370913   0.971448  -0.452577  -0.573161  -2.732764  -0.469871
    26  C    0.229233  -0.192814  -2.534127  -1.051114  -0.479305   0.394111
    27  H   -0.002185  -0.002586   0.003812   0.022429  -0.000945  -0.009806
    28  C   -0.059687   0.058267   1.956602   0.645122   0.370596  -0.175469
    29  H   -0.000195  -0.000170   0.003802   0.007982   0.000607   0.000554
    30  C    0.057005  -0.107471  -1.734900  -0.364826  -0.163580   0.090469
    31  H    0.000020   0.000171   0.013732   0.000426   0.000447  -0.000022
    32  N   -0.093717   0.122160   0.153056   0.097710  -0.243409   0.031164
    33  C    0.019008  -0.010090  -0.192707  -0.003424  -0.007397   0.009493
    34  H    0.005923  -0.004873   0.019001  -0.002315   0.007451  -0.000451
    35  H   -0.002796   0.001135  -0.018089   0.002230  -0.002897   0.000126
    36  C    0.000564   0.012028   0.004960  -0.050541   0.019193  -0.167265
    37  H    0.000000   0.000133   0.000124  -0.002066   0.003610  -0.007012
    38  H    0.000000  -0.000092  -0.000216   0.002357  -0.003092   0.002571
    39  S   -0.002125   0.014196   0.095317   0.016490  -0.007663  -0.003911
    40  S   -0.000155  -0.008357  -0.001892   0.022485  -0.026559   0.042462
    41  H    0.011909   0.001308  -0.129868  -0.026665  -0.002238   0.007513
    42  H    0.000614   0.043955  -0.002406  -0.035606  -0.039103  -0.086093
               7          8          9         10         11         12
     1  N   -0.082411   0.013668  -0.091777  -0.005702   0.000140   0.280059
     2  C    1.097814  -0.058005   0.223027  -0.000651   0.007009  -0.075377
[...]
 0,-0.00161322,0.00541933,-0.00295250,-0.00043368,-0.00037719,0.0004277
 0,0.00100761,0.00185272,-0.00000723,-0.00006943,0.00000263,0.00027276,
 -0.00058646,-0.00029389,-0.00065270,0.00009276,0.00003848,0.00000002,0
 .00025922,0.00014876,-0.00002196,-0.00013210,-0.00006209,0.00012959,-0
 .00042242,-0.00041074,-0.00042380,-0.00618300,-0.01204104,-0.00180629,
 0.00025112,-0.00018713,-0.00023742,-0.00000037,0.00033887,0.00032851,0
 .00004978,-0.00003915,-0.00018928,0.00011214,-0.00011823,-0.00004760,0
 .00000442,-0.00000761,-0.00000036,-0.00019575,-0.00003694,0.00015674,0
 .00000295,0.00001729,0.00002480,0.00004101,0.00029790,0.00006316,-0.00
 000469,0.00000860,0.00001655,-0.00008623,-0.00028788,-0.00018242,0.000
 08211,-0.00000070,-0.00005281,-0.00001286,-0.00003189,0.00002522,-0.00
 002763,-0.00001057,0.00000336,0.03681283,-0.12546342,-0.18805082,0.005
 92410,-0.01612466,-0.01854338,-0.03134981,0.13628008,0.20342060,0.0000
 8330,0.00047855,-0.00015951,-0.00051507,-0.00127662,0.00003785,-0.0000
 5209,-0.00032257,0.00000680,0.00072375,0.00025315,0.00002072,0.0007116
 2,0.00066373,0.00005650,-0.00096503,-0.00000710,0.00012653,-0.00079167
 ,0.00044498,-0.00000591,0.00084397,-0.00027959,0.00017371,0.00016443,0
 .00133006,-0.00004234,0.00017309,-0.00067464,0.00008671,-0.00025860,0.
 00007259,-0.00006801,-0.00038778,-0.00023795,0.00047732,-0.00128839,0.
 00246553,-0.00105615,0.00173083,-0.00149634,0.00122502,0.00008486,0.00
 205005,-0.00048145,-0.00001587,0.00006768,-0.00002199,-0.00125698,-0.0
 0025463,-0.00044611,-0.00001916,0.00010248,-0.00000080,0.00054352,-0.0
 0019778,0.00024440,-0.00010209,-0.00005627,-0.00001944,0.00001616,-0.0
 0004420,-0.00026279,0.00017452,-0.00215174,0.00043440,-0.08562186,-0.0
 4549464,0.03835192,-0.02749769,-0.01175782,0.02166127,0.00209245,0.001
 96270,0.00167488,0.00031525,-0.00150486,-0.00035697,-0.00011895,0.0002
 3957,-0.00021021,0.00097819,0.00152987,0.00230182,0.00026251,0.0000460
 9,0.00025984,-0.00173977,-0.00769665,0.00033621,-0.00012431,0.00085875
 ,-0.00109136,-0.01816618,0.00178030,0.02017356,-0.04022337,-0.00364069
 ,0.00471832,-0.00010785,0.00590944,0.00712064,0.00799925,-0.00537389,-
 0.00366539,0.00041558,0.00000966,0.00018090,-0.00016891,-0.00009492,0.
 00002994,-0.00008716,-0.00010901,-0.00010000,0.16279985,0.00015957,0.0
 0053521,0.00027558,-0.00028977,-0.00036830,0.00016105,0.00009389,-0.00
 094817,-0.00006973,0.00060527,0.00050764,-0.00013005,0.00027427,0.0002
 8604,-0.00007086,-0.00020256,-0.00006449,0.00005474,0.00020908,-0.0008
 7329,0.00004509,0.00002781,0.00012671,0.00001838,0.00009841,0.00059791
 ,-0.00005059,-0.00049746,0.00052194,0.00005259,-0.00004730,0.00001199,
 -0.00001963,-0.00097574,-0.00007365,-0.00027724,-0.00028786,0.00053335
 ,-0.00024210,0.00038500,-0.00034225,0.00026377,0.00000327,0.00048314,-
 0.00011819,-0.00000270,0.00001581,-0.00000503,-0.00028605,-0.00006983,
 -0.00009853,-0.00000705,0.00002839,-0.00000332,0.00012810,-0.00004271,
 0.00005056,-0.00004427,-0.00002065,-0.00000974,-0.00002477,0.00002546,
 -0.00002693,0.00001598,-0.00047446,0.00009883,-0.05726090,-0.07801291,
 0.02032670,-0.02059756,-0.00863760,0.01152166,0.00137639,0.00124644,-0
 .00205292,-0.00076150,-0.00179593,0.00100164,0.00018538,0.00028548,0.0
 0009882,0.00201490,0.00090542,-0.00395077,-0.00085841,-0.00055495,0.00
 053892,-0.02417458,-0.01973051,0.00854905,0.00085380,0.00034548,0.0009
 4684,0.01787875,0.00600150,-0.01460444,0.00508357,-0.05382434,-0.01694
 436,0.00700777,-0.01035995,-0.01956541,0.00642361,-0.00634419,-0.00898
 434,0.00010683,-0.00000397,0.00004014,-0.00003728,-0.00002061,0.000006
 50,-0.00001810,-0.00002022,-0.00001954,0.06351679,0.17045163,0.0005971
 6,-0.00035870,0.00028109,-0.00015852,0.00096746,-0.00012655,-0.0001259
 5,0.00042112,-0.00023982,-0.00000212,-0.00003986,0.00000879,-0.0001582
 0,-0.00020772,0.00006881,0.00047451,-0.00005354,-0.00005269,0.00042522
 ,-0.00058397,0.00000948,-0.00041693,0.00023611,-0.00011716,-0.00000876
 ,-0.00076375,0.00011232,-0.00019300,0.00058986,-0.00004199,0.00011596,
 -0.00004318,0.00002961,-0.00055301,0.00038039,-0.00071441,0.00066429,-
 0.00131135,0.00053397,-0.00090922,0.00078121,-0.00063843,-0.00004370,-
 0.00106841,0.00025936,0.00001290,-0.00003700,0.00000959,0.00065461,0.0
 0012932,0.00023942,0.00001360,-0.00005911,-0.00000040,-0.00027511,0.00
 011838,-0.00013836,0.00003767,0.00003107,0.00000236,-0.00001057,0.0000
 3515,0.00014204,-0.00007238,0.00113706,-0.00021560,0.03056849,0.006833
 51,-0.04226193,0.01598102,0.00401412,-0.00943520,0.00147287,-0.0030097
 0,-0.00005599,-0.00075487,0.00068095,0.00029845,-0.00012228,0.00011987
 ,-0.00008247,0.00247360,-0.00277290,-0.00043664,-0.00027234,-0.0005228
 6,0.00044413,-0.00739731,-0.00424198,0.00849812,-0.00142214,0.00061462
 ,-0.00057985,0.03006647,0.00007300,-0.02567452,0.01020354,-0.00895142,
 -0.04581047,0.00178421,-0.00269054,0.00198766,0.00903537,-0.01351465,-
 0.00996078,-0.00022690,-0.00000768,-0.00010326,0.00009066,0.00005042,-
 0.00001608,0.00004753,0.00005865,0.00005371,-0.09180528,0.02296495,0.1
 2354558,0.00056684,-0.00021313,0.00014354,-0.00060535,0.00116871,-0.00
 006342,-0.00128666,0.00012684,0.00005249,0.00095995,0.00052797,0.00014
 558,-0.00026183,0.00006874,-0.00014510,-0.00005624,-0.00094690,0.00007
 561,-0.00017924,-0.00201725,0.00004510,-0.00061654,0.00051219,0.000156
 71,0.00035201,-0.00102167,0.00004482,-0.00006004,0.00150829,-0.0000975
 4,0.00037142,-0.00058078,-0.00012071,-0.00017175,0.00009154,0.00002898
 ,-0.03551481,-0.00788058,-0.01630047,-0.10466625,-0.03759335,-0.029082
 56,0.00039408,-0.00876074,-0.00102268,0.00035674,0.00056262,0.00135567
 ,0.00096004,0.00266257,-0.00218955,0.00021240,0.00024823,0.00002626,-0
 .00047412,-0.00115591,0.00050030,-0.00002704,0.00020068,0.00014831,-0.
 00011404,0.00354922,-0.00067568,-0.03335765,0.00710313,-0.01655695,0.0
 0122382,-0.00096129,-0.00135379,-0.00028078,0.00172692,0.00170331,0.00
 002974,-0.00008834,-0.00037785,0.00046211,-0.00033726,-0.00031223,-0.0
 0002681,-0.00003354,0.00001101,-0.00093760,-0.00027653,0.00070992,0.00
 001015,0.00008246,0.00007239,0.00018077,0.00156715,0.00049764,-0.00000
 774,0.00004604,0.00006600,-0.00029937,-0.00159101,-0.00093661,0.000364
 17,0.00001821,-0.00026558,-0.00006117,-0.00014126,0.00011375,-0.000137
 91,-0.00006298,0.00000723,-0.04535981,0.00067362,-0.00615133,0.0049795
 5,-0.00066411,-0.00124393,-0.00243098,0.00745188,-0.00355278,-0.000407
 78,-0.00007956,0.00022854,0.21540827,0.00011104,0.00021517,0.00000831,
 -0.00002989,-0.00061331,0.00006382,-0.00066860,-0.00011918,0.00003267,
 0.00090452,0.00046594,-0.00002569,0.00049597,0.00056776,-0.00026250,-0
 .00023980,-0.00159759,0.00022015,-0.00082654,-0.00033909,-0.00002759,0
 .00118787,0.00027682,0.00010960,-0.00027871,0.00035708,-0.00007233,0.0
 0013844,0.00061458,-0.00003105,-0.00181762,0.00014817,-0.00016102,-0.0
 0002690,0.00001722,0.00000749,-0.02006594,-0.00583207,-0.00778096,-0.0
 5637846,-0.07555516,-0.01296813,-0.02705805,-0.01873394,-0.00834124,0.
 00006550,0.00076179,-0.00031841,0.00386456,-0.00068815,0.00193446,-0.0
 0120622,-0.00038574,-0.00004575,-0.00145874,-0.00132524,-0.00051963,0.
 00017445,0.00032020,-0.00014946,0.00179730,0.00084397,0.00261755,0.028
 76547,0.00129719,0.01249830,0.00023956,-0.00019294,-0.00024467,-0.0000
 2272,0.00034033,0.00033359,-0.00000914,-0.00000153,-0.00010176,0.00011
 214,-0.00010657,-0.00006102,-0.00003006,-0.00000885,0.00000538,-0.0002
 0667,-0.00005834,0.00016559,0.00000035,0.00002054,0.00002192,0.0000355
 9,0.00032856,0.00009309,0.00000019,0.00000883,0.00001381,-0.00006803,-
 0.00029568,-0.00018476,0.00008206,-0.00000952,-0.00005121,-0.00001260,
 -0.00002428,0.00002183,-0.00002678,-0.00000876,0.00000233,0.01311332,-
 0.05992885,0.00923761,0.01199994,-0.01193291,0.00489421,0.01240102,-0.
 01408320,0.01140802,-0.00007260,-0.00000213,0.00003952,0.03458938,0.18
 525928,0.00028708,-0.00015110,0.00006077,-0.00039384,0.00032697,0.0000
 1348,-0.00033504,0.00002307,-0.00003526,0.00016172,0.00022688,-0.00008
 660,0.00016841,0.00014824,-0.00020281,-0.00085166,-0.00014214,0.000104
 00,-0.00014281,-0.00074966,0.00000404,-0.00032659,-0.00006163,0.000231
 26,0.00018638,-0.00030457,0.00000408,0.00004317,0.00045017,-0.00001977
 ,0.00055390,-0.00031841,0.00005566,-0.00015810,0.00004268,0.00001470,-
 0.01536294,-0.00225936,-0.00298480,-0.02764011,-0.00719598,-0.02788894
 ,0.00455125,0.00266021,0.00519893,0.00109664,-0.00036198,-0.00153040,-
 0.00263144,0.00166497,0.00156317,0.00011119,0.00029368,0.00040234,0.00
 081672,-0.00098258,0.00026686,0.00005657,-0.00011811,-0.00017752,-0.00
 032817,0.00285566,0.00168814,-0.02018179,0.00330962,-0.00700292,0.0006
 8080,-0.00054831,-0.00079213,-0.00023335,0.00099745,0.00097287,-0.0000
 4251,-0.00002111,-0.00005162,0.00024355,-0.00010702,-0.00018238,-0.000
 03399,-0.00001614,0.00000314,-0.00051034,-0.00019276,0.00037938,0.0000
 0262,0.00004375,0.00002432,0.00009075,0.00089225,0.00032534,-0.0000006
 9,0.00002648,0.00002831,-0.00011070,-0.00095237,-0.00053366,0.00017840
 ,0.00001463,-0.00014487,-0.00003687,-0.00007786,0.00006037,-0.00007241
 ,-0.00003610,0.00000612,-0.00730585,0.00454116,-0.03588590,-0.01056204
 ,0.01301234,-0.00090294,0.00322543,-0.00469327,0.00775647,-0.00019472,
 -0.00003656,0.00010976,0.07487129,-0.01220909,0.05933572,0.00150648,-0
 .00380732,-0.00003366,-0.00318954,0.00383454,-0.00053552,-0.01825631,0
 .01102902,-0.02704771,0.00336257,0.00105084,-0.00004259,-0.00385982,0.
 00009558,0.00088699,0.00309547,0.00023001,0.00149096,0.00124308,-0.003
 34825,-0.00048358,-0.00015894,0.00078791,-0.00033627,0.00145368,-0.003
 12161,0.00052040,-0.00107455,0.00296123,0.00018436,-0.00084542,-0.0000
 1867,-0.00009460,0.00104990,0.00010491,-0.00045905,-0.00170623,0.00245
 127,-0.00177770,0.00208367,-0.00193914,0.00112567,0.00002911,0.0025548
 2,-0.00040824,0.00006174,0.00005707,-0.00001519,-0.00147283,-0.0004739
 7,-0.00050205,0.00002491,0.00003029,0.00001682,0.00122596,0.00002803,-
 0.00026464,-0.00044643,-0.00005471,-0.00003547,-0.00117241,0.00047723,
 0.00033693,0.00058242,-0.00240230,0.00080725,-0.00394020,0.00025828,0.
 00321297,0.00319316,-0.00984361,0.02066965,-0.04506217,0.00103825,-0.0
 3892177,0.00183087,-0.00225044,0.00073271,0.00060800,-0.00023705,0.000
 02608,0.00058527,0.00164426,-0.00101851,-0.00011818,0.00001727,0.00006
 285,0.00004605,-0.00279512,-0.00212635,0.00009680,-0.00014225,0.000217
 58,0.00074910,0.00618645,0.00283021,-0.00095253,0.00016576,-0.00047499
 ,0.00019181,0.00037257,-0.00004360,-0.00000709,-0.00009092,0.00011622,
 0.00021723,-0.00003594,0.00000864,-0.00009860,-0.00005391,-0.00000681,
 -0.00008803,-0.00013658,-0.00009143,-0.00053506,-0.00008713,0.00014676
 ,-0.00013351,-0.00004137,0.00002141,0.05907316,-0.00046225,0.00179792,
 -0.00043021,0.00149966,-0.00271546,0.00002756,0.00918606,-0.00242724,0
 .01429179,-0.00184745,-0.00062879,0.00014912,0.00206862,0.00035134,-0.
 00022825,-0.00166531,0.00020728,-0.00081973,-0.00134750,0.00300747,0.0
 0020252,0.00072370,-0.00089503,0.00029573,-0.00075737,0.00243548,-0.00
 021421,0.00116780,-0.00254591,0.00011498,0.00034038,0.00002223,0.00000
 808,-0.00069066,-0.00012350,0.00044920,0.00050100,-0.00050121,0.000594
 01,-0.00055858,0.00056414,-0.00021578,0.00000981,-0.00072337,0.0000694
 9,-0.00003575,-0.00001062,0.00000157,0.00040277,0.00016429,0.00013064,
 -0.00001578,0.00000961,-0.00000906,-0.00048611,-0.00007667,0.00020903,
 0.00021234,0.00001674,0.00001365,0.00059874,-0.00025434,-0.00025139,-0
 .00023513,0.00057555,-0.00028056,0.00092083,-0.00344223,-0.00184822,-0
 .00209412,-0.00127659,0.02040919,0.00094473,-0.04532541,0.01986520,-0.
 00065445,0.00084607,-0.03279907,-0.00032729,0.00051087,0.00106507,-0.0
 0447648,-0.00428485,0.00136803,0.00156988,-0.00097275,0.00055382,0.000
 53003,0.00365985,0.00087534,0.00007051,0.00012238,-0.00000812,0.000623
 68,0.00008915,-0.00093906,-0.00050110,0.00034133,-0.00045297,0.0000656
 6,0.00002532,0.00003212,-0.00021453,-0.00016906,0.00012095,-0.00000591
 ,0.00002409,0.00004385,-0.00000211,-0.00000352,0.00001317,0.00001666,0
 .00003623,0.00001564,-0.00082657,-0.00026413,-0.00014180,-0.00004775,-
 0.00001212,-0.00006291,-0.00386906,0.05157492,0.00135379,-0.00127444,-
 0.00077855,-0.00261223,-0.00141165,-0.00091006,-0.01306067,0.00500152,
 0.00064482,0.00371045,0.00157626,-0.00005447,0.00140463,0.00201688,-0.
 00013260,-0.00149004,-0.00017681,0.00046249,-0.00298929,-0.00058643,-0
 .00021802,0.00185432,-0.00073618,0.00029042,0.00058559,0.00132595,0.00
 042160,0.00085971,-0.00025570,0.00008393,-0.00061719,0.00004503,-0.000
 13196,-0.00050404,0.00017464,-0.00018349,-0.00196051,0.00352637,-0.001
 56859,0.00249278,-0.00213143,0.00171973,0.00013964,0.00292715,-0.00066
 295,0.00000336,0.00008861,-0.00001670,-0.00182171,-0.00042454,-0.00063
 578,-0.00001106,0.00010870,0.00002039,0.00090145,-0.00019427,0.0002860
 4,-0.00022336,-0.00006431,-0.00002748,-0.00011679,0.00000218,-0.000371
 47,0.00053394,-0.00312845,0.00069612,0.00056116,0.00255957,-0.00040358
 ,0.00578163,0.00495952,-0.01387363,-0.03384309,0.02167818,-0.25521751,
 0.00104882,-0.00805978,-0.01298150,-0.00013131,-0.00027192,0.00060685,
 -0.00328900,-0.00111608,0.00089670,0.00052095,-0.00025171,-0.00003980,
 0.00010257,0.00020511,-0.00042912,-0.00005853,0.00003668,-0.00000087,-
 0.00188310,-0.00333038,0.00043394,0.00163396,-0.00001199,-0.00002232,-
 0.00027948,-0.00019996,0.00027874,-0.00012081,0.00005184,-0.00005742,0
 .00044733,0.00000202,0.00019016,-0.00021933,-0.00012842,0.00003152,-0.
 00012208,-0.00014760,-0.00012769,0.00018837,0.00024095,0.00011993,-0.0
 0044614,-0.00012202,-0.00020418,0.04107918,-0.02213103,0.28172867,-0.0
 0135357,0.00136251,-0.00069732,0.00351953,-0.00434302,0.00112717,0.004
 64553,-0.00000413,-0.00080015,-0.00546193,-0.00090762,-0.00176111,0.00
 202520,0.00028954,-0.00031258,-0.01949366,0.01056291,0.02294096,-0.002
 76385,0.00502922,-0.00064175,0.00189197,-0.00439422,-0.00013120,-0.002
 26227,0.00424538,-0.00066248,0.00159884,-0.00466755,0.00029650,0.00207
 270,0.00008121,0.00058090,-0.00032203,-0.00007806,0.00001805,0.0051988
 6,-0.01676431,-0.01898912,-0.00758377,0.00438962,-0.00206231,-0.000064
 61,-0.00578483,0.00134890,-0.00001223,-0.00022140,-0.00013046,0.004109
 77,0.00125658,0.00112730,-0.00003457,-0.00014618,-0.00009627,-0.001702
 08,0.00097627,0.00086493,0.00088584,-0.00012980,-0.00007248,-0.0349483
 4,-0.00034170,0.04588816,-0.00105252,0.00921703,-0.00414400,-0.0002894
 6,-0.00009517,-0.00034188,-0.00089285,-0.00010405,-0.00002334,-0.00035
 259,0.00023314,0.00149869,-0.00025895,0.00077658,-0.00015175,-0.000269
 51,-0.00001645,0.00003242,0.00017396,-0.00023036,-0.00026449,-0.000031
 86,-0.00002158,-0.00012012,-0.00006389,0.00009579,0.00041658,0.0000503
 9,-0.00000158,-0.00006706,0.00052420,-0.00009658,0.00013931,-0.0002393
 9,0.00004509,0.00008847,0.00001253,0.00008163,-0.00006201,0.00004579,-
 0.00001163,-0.00001834,-0.00126519,-0.00008066,0.00206995,-0.00022422,
 -0.00006959,-0.00017965,0.00039863,0.00075040,0.00024628,0.00033848,0.
 00009211,-0.00016638,0.00064298,0.00046674,0.00010871,0.00080742,-0.00
 033161,0.00059613,0.05200072,0.00104907,-0.00072095,0.00031156,-0.0021
 3994,0.00524898,-0.00049657,-0.00342167,0.00006679,0.00062685,0.003827
 41,0.00055679,0.00081725,-0.00323492,-0.00092658,0.00006789,0.01095136
 ,-0.00371317,-0.01187005,0.00126179,-0.00353066,0.00038301,-0.00046936
 ,0.00203220,0.00029258,0.00217433,-0.00427750,0.00026904,-0.00093177,0
 .00320034,-0.00016709,-0.00140856,-0.00018818,-0.00076428,0.00028158,0
 .00005334,0.00000584,-0.00174302,0.00073998,-0.02143796,0.00249431,-0.
 00265451,0.00151126,-0.00192400,0.00411135,-0.00021709,0.00010954,0.00
 007627,-0.00006963,-0.00250235,-0.00354572,-0.00019052,0.00095789,-0.0
 0059138,-0.00180507,-0.00072991,-0.00444807,0.03018370,-0.00083944,0.0
 0007640,-0.00150012,-0.00195758,-0.03246042,-0.01768489,-0.00035640,-0
 .00498699,0.00057972,0.00003309,0.00020014,0.00046172,0.00073231,-0.00
 014122,-0.00025614,0.00024221,-0.00015289,-0.00103228,0.00009128,-0.00
 058186,0.00014458,0.00018259,0.00001212,-0.00002048,0.00001626,0.00024
 535,0.00009619,0.00002076,0.00000833,0.00009345,0.00002460,-0.00030938
 ,-0.00039563,-0.00003972,-0.00000372,0.00004225,-0.00038762,0.00032932
 ,0.00002810,0.00014352,-0.00003770,-0.00002804,-0.00000046,-0.00004171
 ,0.00003372,-0.00001961,0.00001768,0.00001188,0.00035203,0.00008960,0.
 00191260,-0.00080693,-0.00034256,-0.00014544,-0.00005345,0.00004064,-0
 .00022758,-0.00021087,-0.00006030,0.00010334,-0.00003244,0.00001174,0.
 00006881,-0.00062625,0.00027055,-0.00037207,-0.00110967,0.04632755,-0.
 00049456,0.00036729,-0.00004227,0.00058447,-0.00155527,0.00002425,0.00
 083579,-0.00052323,-0.00026715,-0.00048673,-0.00083717,0.00016964,-0.0
 0039174,0.00016103,0.00112089,0.00492172,-0.00182956,-0.00496741,0.000
 62128,0.00142714,0.00005926,-0.00044922,0.00037468,0.00051417,-0.00057
 493,0.00165221,-0.00020949,0.00017252,-0.00130766,0.00008230,0.0004452
 1,-0.00013804,-0.00020353,-0.00013889,-0.00001295,-0.00000442,-0.00152
 423,-0.00735057,-0.01457377,-0.00161074,0.00011674,-0.00069376,-0.0002
 9475,-0.00227433,-0.00023029,-0.00001029,-0.00007059,-0.00006020,0.003
 53016,0.00145715,0.00198112,-0.00045153,0.00029517,0.00056204,-0.00057
 391,0.00806924,-0.01323944,0.00029578,0.00045292,0.00034792,0.04419175
 ,-0.02325101,-0.26039222,0.00027797,0.00432000,0.00060770,-0.00003160,
 -0.00005933,-0.00017361,-0.00027651,-0.00000519,0.00010592,-0.00003100
 ,0.00005114,0.00031069,-0.00002142,0.00025334,-0.00003546,-0.00005369,
 0.00000465,0.00000095,0.00000884,-0.00011046,-0.00004497,-0.00000792,-
 0.00000666,-0.00004444,-0.00001329,0.00010195,0.00015023,0.00001780,-0
 .00000092,-0.00001858,0.00018231,-0.00011158,-0.00000886,-0.00007711,0
 .00001615,0.00002259,0.00000086,0.00001985,-0.00001710,0.00001236,-0.0
 0000651,-0.00000517,-0.00156126,-0.00048986,0.00119489,-0.00005337,-0.
 00013161,-0.00023626,0.00030571,0.00041109,0.00010239,0.00010079,0.000
 02352,-0.00005153,-0.00010955,-0.00005095,0.00001752,0.00022608,-0.000
 08739,0.00013768,-0.04749314,0.02063558,0.28800778\\0.00001408,-0.0000
 1632,0.00000194,-0.00002364,-0.00001021,-0.00000411,0.00000236,0.00000
 520,-0.00001397,-0.00001936,-0.00000331,0.00001558,0.00001374,0.000004
 35,0.00000704,0.00000229,-0.00000419,-0.00000444,0.00001133,0.00001741
 ,-0.00001491,-0.00000817,0.00000191,0.00000357,0.00000349,0.00000773,0
 .00000033,0.00000126,-0.00000985,0.00000484,0.00000147,-0.00000032,0.0
 0000086,0.00000067,0.00000409,-0.00000013,-0.00001649,0.00003860,-0.00
 001416,0.00001521,-0.00001728,0.00000666,-0.00000106,0.00001281,-0.000
 00114,0.00000209,0.00000054,0.,-0.00000309,-0.00000564,-0.00000264,-0.
 00000055,0.00000121,0.00000020,0.00000384,-0.00000657,0.00000464,-0.00
 000052,0.00000107,0.00000012,-0.00000850,0.00000858,-0.00000461,0.0000
 0566,-0.00002579,0.00000929,0.00000986,0.00000099,-0.00001586,-0.00001
 238,0.00000124,0.00000699,0.00000819,-0.00000809,0.00000213,0.00000200
 ,0.00000485,0.00000586,-0.00000084,-0.00000085,-0.00000176,-0.00000710
 ,-0.00000510,0.00000229,0.00000091,0.00000097,-0.00000146,0.00000442,0
 .00000621,0.00000503,-0.00000192,-0.00000281,-0.00000027,0.00000547,-0
 .00000108,0.00000111,0.00000095,-0.00000788,-0.00000794,0.00000090,0.0
 0000151,0.00000044,0.00000180,0.00000152,0.00000076,-0.00000356,0.0000
 1175,-0.00000470,-0.00000125,-0.00000174,0.00000154,-0.00000079,-0.000
 00129,0.00000042,-0.00000628,0.00000321,0.00000723,-0.00000041,-0.0000
 0564,0.00000092,-0.00000255,0.00000229,-0.00000059,0.00000649,-0.00000
 411,0.00000290\\\@


 NO HUMAN INVESTIGATION CAN BECOME REAL SCIENCE
 WITHOUT GOING THROUGH MATHEMATICAL PEOPLE.
 -- LEONARDO DA VINCI, IN "PENSIERI" CA. 1492
 Job cpu time:       0 days  5 hours  3 minutes 41.4 seconds.
 Elapsed time:       0 days  5 hours  4 minutes  4.5 seconds.
 File lengths (MBytes):  RWF=   3004 Int=      0 D2E=      0 Chk=     43 Scr=      1
 Normal termination of Gaussian 16 at Tue Feb  6 00:31:02 2024.
