 Entering Link 1 = C:\G09W\l1.exe PID=       352.
  
 Copyright (c) 1988,1990,1992,1993,1995,1998,2003,2009,2010,
            Gaussian, Inc.  All Rights Reserved.
  
 This is part of the Gaussian(R) 09 program.  It is based on
 the Gaussian(R) 03 system (copyright 2003, Gaussian, Inc.),
 the Gaussian(R) 98 system (copyright 1998, Gaussian, Inc.),
 the Gaussian(R) 94 system (copyright 1995, Gaussian, Inc.),
 the Gaussian 92(TM) system (copyright 1992, Gaussian, Inc.),
 the Gaussian 90(TM) system (copyright 1990, Gaussian, Inc.),
 the Gaussian 88(TM) system (copyright 1988, Gaussian, Inc.),
 the Gaussian 86(TM) system (copyright 1986, Carnegie Mellon
 University), and the Gaussian 82(TM) system (copyright 1983,
 Carnegie Mellon University). Gaussian is a federally registered
 trademark of Gaussian, Inc.
  
 This software contains proprietary and confidential information,
 including trade secrets, belonging to Gaussian, Inc.
  
 This software is provided under written license and may be
 used, copied, transmitted, or stored only in accord with that
 written license.
  
 The following legend is applicable only to US Government
 contracts under FAR:
  
                    RESTRICTED RIGHTS LEGEND
  
 Use, reproduction and disclosure by the US Government is
 subject to restrictions as set forth in subparagraphs (a)
 and (c) of the Commercial Computer Software - Restricted
 Rights clause in FAR 52.227-19.
  
 Gaussian, Inc.
 340 Quinnipiac St., Bldg. 40, Wallingford CT 06492
  
  
 ---------------------------------------------------------------
 Warning -- This program may not be used in any manner that
 competes with the business of Gaussian, Inc. or will provide
 assistance to any competitor of Gaussian, Inc.  The licensee
 of this program is prohibited from giving any competitor of
 Gaussian, Inc. access to this program.  By using this program,
 the user acknowledges that Gaussian, Inc. is engaged in the
 business of creating and licensing software in the field of
 computational chemistry and represents and warrants to the
 licensee that it is not a competitor of Gaussian, Inc. and that
 it will not use this program in any manner prohibited above.
 ---------------------------------------------------------------
  

 Cite this work as:
 Gaussian 09, Revision B.01,
 M. J. Frisch, G. W. Trucks, H. B. Schlegel, G. E. Scuseria, 
 M. A. Robb, J. R. Cheeseman, G. Scalmani, V. Barone, B. Mennucci, 
 G. A. Petersson, H. Nakatsuji, M. Caricato, X. Li, H. P. Hratchian, 
 A. F. Izmaylov, J. Bloino, G. Zheng, J. L. Sonnenberg, M. Hada, 
 M. Ehara, K. Toyota, R. Fukuda, J. Hasegawa, M. Ishida, T. Nakajima, 
 Y. Honda, O. Kitao, H. Nakai, T. Vreven, J. A. Montgomery, Jr., 
 J. E. Peralta, F. Ogliaro, M. Bearpark, J. J. Heyd, E. Brothers, 
 K. N. Kudin, V. N. Staroverov, T. Keith, R. Kobayashi, J. Normand, 
 K. Raghavachari, A. Rendell, J. C. Burant, S. S. Iyengar, J. Tomasi, 
 M. Cossi, N. Rega, J. M. Millam, M. Klene, J. E. Knox, J. B. Cross, 
 V. Bakken, C. Adamo, J. Jaramillo, R. Gomperts, R. E. Stratmann, 
 O. Yazyev, A. J. Austin, R. Cammi, C. Pomelli, J. W. Ochterski, 
 R. L. Martin, K. Morokuma, V. G. Zakrzewski, G. A. Voth, 
 P. Salvador, J. J. Dannenberg, S. Dapprich, A. D. Daniels, 
 O. Farkas, J. B. Foresman, J. V. Ortiz, J. Cioslowski, 
 and D. J. Fox, Gaussian, Inc., Wallingford CT, 2010.
 
 ******************************************
 Gaussian 09:  IA32W-G09RevB.01 12-Aug-2010
                18-Sep-2023 
 ******************************************
 %nprocshared=6
 Will use up to    6 processors via shared memory.
 %chk=DPP-SUB-5a-OPT-FREQ.chk
 -----------------------------------------------------------
 # opt=tight freq b3lyp/6-31+g(d,p) nosymm geom=connectivity
 -----------------------------------------------------------
 1/7=10,14=-1,18=20,19=15,26=3,38=1,57=2/1,3;
 2/9=110,12=2,15=1,17=6,18=5,40=1/2;
 3/5=1,6=6,7=111,11=2,16=1,25=1,30=1,71=1,74=-5/1,2,3;
 4//1;
 5/5=2,38=5/2;
 6/7=2,8=2,9=2,10=2,28=1/1;
 7/30=1/1,2,3,16;
 1/7=10,14=-1,18=20,19=15/3(2);
 2/9=110,15=1/2;
 99//99;
 2/9=110,15=1/2;
 3/5=1,6=6,7=111,11=2,16=1,25=1,30=1,71=1,74=-5/1,2,3;
 4/5=5,16=3/1;
 5/5=2,38=5/2;
 7/30=1/1,2,3,16;
 1/7=10,14=-1,18=20,19=15/3(-5);
 2/9=110,15=1/2;
 6/7=2,8=2,9=2,10=2,19=2,28=1/1;
 99/9=1/99;
 -------
 Energy:
 -------
 Symbolic Z-matrix:
 Charge =  0 Multiplicity = 1
 N                    -0.80946  -1.14873  -1.85816 
 C                    -1.04247   0.24505  -1.81612 
 C                    -0.10539  -1.61325  -0.75878 
 C                     0.1473   -0.50909   0.0525 
 C                    -0.41328   0.64954  -0.56443 
 C                    -0.16058   1.75371   0.24683 
 C                     0.77647  -0.10459   1.3042 
 N                     0.54351   1.28918   1.34621 
 O                    -1.64757   0.86765  -2.68859 
 O                     1.38154  -0.72721   2.17668 
 H                     0.85376   1.89758   2.09708 
 H                    -1.11968  -1.7571   -2.60905 
 C                    -0.15854   4.16837   1.03836 
 C                    -0.54265   5.54752   0.80396 
 C                    -1.26868   5.90555  -0.36957 
 H                    -1.55373   6.93898  -0.54015 
 C                    -1.59292   4.91665  -1.26657 
 H                    -2.14539   5.16158  -2.16823 
 C                    -1.22323   3.56058  -1.05047 
 H                    -1.50561   2.81799  -1.79289 
 C                    -0.51471   3.14989   0.07349 
 C                    -0.0978    6.34301   1.85375 
 H                    -0.21932   7.41026   1.98479 
 S                     0.71857   5.37212   2.98974 
 N                     0.51986   3.93995   2.17037 
 C                    -0.10725  -4.02789  -1.55044 
 C                     0.27683  -5.40703  -1.31602 
 C                     1.0026   -5.76511  -0.14234 
 H                     1.28764  -6.79854   0.02823 
 C                     1.32663  -4.77625   0.75478 
 H                     1.87891  -5.0212    1.65655 
 C                     0.95697  -3.42017   0.53865 
 H                     1.23916  -2.6776    1.28116 
 C                     0.24871  -3.00944  -0.58545 
 C                    -0.16777  -6.20249  -2.36594 
 H                    -0.0462   -7.26972  -2.49701 
 S                    -0.98392  -5.23156  -3.50206 
 N                    -0.78542  -3.79941  -2.68259 
 

 GradGradGradGradGradGradGradGradGradGradGradGradGradGradGradGradGradGrad
 Berny optimization.
 Initialization pass.
                           ----------------------------
                           !    Initial Parameters    !
                           ! (Angstroms and Degrees)  !
 --------------------------                            --------------------------
 ! Name  Definition              Value          Derivative Info.                !
 --------------------------------------------------------------------------------
 ! R1    R(1,2)                  1.4137         estimate D2E/DX2                !
 ! R2    R(1,3)                  1.3857         estimate D2E/DX2                !
 ! R3    R(1,12)                 1.015          estimate D2E/DX2                !
 ! R4    R(2,5)                  1.4582         estimate D2E/DX2                !
 ! R5    R(2,9)                  1.2308         estimate D2E/DX2                !
 ! R6    R(3,4)                  1.3933         estimate D2E/DX2                !
 ! R7    R(3,34)                 1.4508         estimate D2E/DX2                !
 ! R8    R(4,5)                  1.4273         estimate D2E/DX2                !
 ! R9    R(4,7)                  1.4582         estimate D2E/DX2                !
 ! R10   R(5,6)                  1.3933         estimate D2E/DX2                !
 ! R11   R(6,8)                  1.3857         estimate D2E/DX2                !
 ! R12   R(6,21)                 1.4508         estimate D2E/DX2                !
 ! R13   R(7,8)                  1.4137         estimate D2E/DX2                !
 ! R14   R(7,10)                 1.2308         estimate D2E/DX2                !
 ! R15   R(8,11)                 1.015          estimate D2E/DX2                !
 ! R16   R(11,25)                2.0708         estimate D2E/DX2                !
 ! R17   R(12,38)                2.0708         estimate D2E/DX2                !
 ! R18   R(13,14)                1.4507         estimate D2E/DX2                !
 ! R19   R(13,21)                1.4475         estimate D2E/DX2                !
 ! R20   R(13,25)                1.3394         estimate D2E/DX2                !
 ! R21   R(14,15)                1.4256         estimate D2E/DX2                !
 ! R22   R(14,22)                1.3902         estimate D2E/DX2                !
 ! R23   R(15,16)                1.0855         estimate D2E/DX2                !
 ! R24   R(15,17)                1.3739         estimate D2E/DX2                !
 ! R25   R(17,18)                1.0855         estimate D2E/DX2                !
 ! R26   R(17,19)                1.4221         estimate D2E/DX2                !
 ! R27   R(19,20)                1.0874         estimate D2E/DX2                !
 ! R28   R(19,21)                1.3907         estimate D2E/DX2                !
 ! R29   R(22,23)                1.0821         estimate D2E/DX2                !
 ! R30   R(22,24)                1.7028         estimate D2E/DX2                !
 ! R31   R(24,25)                1.6619         estimate D2E/DX2                !
 ! R32   R(26,27)                1.4507         estimate D2E/DX2                !
 ! R33   R(26,34)                1.4475         estimate D2E/DX2                !
 ! R34   R(26,38)                1.3393         estimate D2E/DX2                !
 ! R35   R(27,28)                1.4257         estimate D2E/DX2                !
 ! R36   R(27,35)                1.3902         estimate D2E/DX2                !
 ! R37   R(28,29)                1.0855         estimate D2E/DX2                !
 ! R38   R(28,30)                1.3739         estimate D2E/DX2                !
 ! R39   R(30,31)                1.0855         estimate D2E/DX2                !
 ! R40   R(30,32)                1.4221         estimate D2E/DX2                !
 ! R41   R(32,33)                1.0874         estimate D2E/DX2                !
 ! R42   R(32,34)                1.3907         estimate D2E/DX2                !
 ! R43   R(35,36)                1.0821         estimate D2E/DX2                !
 ! R44   R(35,37)                1.7028         estimate D2E/DX2                !
 ! R45   R(37,38)                1.6619         estimate D2E/DX2                !
 ! A1    A(2,1,3)              112.9951         estimate D2E/DX2                !
 ! A2    A(2,1,12)             124.2323         estimate D2E/DX2                !
 ! A3    A(3,1,12)             122.7725         estimate D2E/DX2                !
 ! A4    A(1,2,5)              103.1724         estimate D2E/DX2                !
 ! A5    A(1,2,9)              123.9619         estimate D2E/DX2                !
 ! A6    A(5,2,9)              132.8657         estimate D2E/DX2                !
 ! A7    A(1,3,4)              106.7655         estimate D2E/DX2                !
 ! A8    A(1,3,34)             122.7806         estimate D2E/DX2                !
 ! A9    A(4,3,34)             130.4538         estimate D2E/DX2                !
 ! A10   A(3,4,5)              108.6867         estimate D2E/DX2                !
 ! A11   A(3,4,7)              142.9336         estimate D2E/DX2                !
 ! A12   A(5,4,7)              108.3798         estimate D2E/DX2                !
 ! A13   A(2,5,4)              108.3803         estimate D2E/DX2                !
 ! A14   A(2,5,6)              142.9325         estimate D2E/DX2                !
 ! A15   A(4,5,6)              108.6872         estimate D2E/DX2                !
 ! A16   A(5,6,8)              106.7651         estimate D2E/DX2                !
 ! A17   A(5,6,21)             130.4536         estimate D2E/DX2                !
 ! A18   A(8,6,21)             122.7812         estimate D2E/DX2                !
 ! A19   A(4,7,8)              103.173          estimate D2E/DX2                !
 ! A20   A(4,7,10)             132.8648         estimate D2E/DX2                !
 ! A21   A(8,7,10)             123.9622         estimate D2E/DX2                !
 ! A22   A(6,8,7)              112.9948         estimate D2E/DX2                !
 ! A23   A(6,8,11)             122.7722         estimate D2E/DX2                !
 ! A24   A(7,8,11)             124.233          estimate D2E/DX2                !
 ! A25   A(14,13,21)           119.7404         estimate D2E/DX2                !
 ! A26   A(14,13,25)           115.6464         estimate D2E/DX2                !
 ! A27   A(21,13,25)           124.6132         estimate D2E/DX2                !
 ! A28   A(13,14,15)           120.4372         estimate D2E/DX2                !
 ! A29   A(13,14,22)           109.7092         estimate D2E/DX2                !
 ! A30   A(15,14,22)           129.8536         estimate D2E/DX2                !
 ! A31   A(14,15,16)           120.1442         estimate D2E/DX2                !
 ! A32   A(14,15,17)           118.4795         estimate D2E/DX2                !
 ! A33   A(16,15,17)           121.3763         estimate D2E/DX2                !
 ! A34   A(15,17,18)           120.0027         estimate D2E/DX2                !
 ! A35   A(15,17,19)           121.7216         estimate D2E/DX2                !
 ! A36   A(18,17,19)           118.2758         estimate D2E/DX2                !
 ! A37   A(17,19,20)           118.6831         estimate D2E/DX2                !
 ! A38   A(17,19,21)           122.4712         estimate D2E/DX2                !
 ! A39   A(20,19,21)           118.8458         estimate D2E/DX2                !
 ! A40   A(6,21,13)            122.5097         estimate D2E/DX2                !
 ! A41   A(6,21,19)            120.3401         estimate D2E/DX2                !
 ! A42   A(13,21,19)           117.1501         estimate D2E/DX2                !
 ! A43   A(14,22,23)           128.3052         estimate D2E/DX2                !
 ! A44   A(14,22,24)           109.3239         estimate D2E/DX2                !
 ! A45   A(23,22,24)           122.3709         estimate D2E/DX2                !
 ! A46   A(22,24,25)            96.0342         estimate D2E/DX2                !
 ! A47   A(13,25,24)           109.2863         estimate D2E/DX2                !
 ! A48   A(27,26,34)           119.7399         estimate D2E/DX2                !
 ! A49   A(27,26,38)           115.647          estimate D2E/DX2                !
 ! A50   A(34,26,38)           124.6131         estimate D2E/DX2                !
 ! A51   A(26,27,28)           120.4376         estimate D2E/DX2                !
 ! A52   A(26,27,35)           109.7092         estimate D2E/DX2                !
 ! A53   A(28,27,35)           129.8532         estimate D2E/DX2                !
 ! A54   A(27,28,29)           120.1429         estimate D2E/DX2                !
 ! A55   A(27,28,30)           118.4795         estimate D2E/DX2                !
 ! A56   A(29,28,30)           121.3776         estimate D2E/DX2                !
 ! A57   A(28,30,31)           120.0033         estimate D2E/DX2                !
 ! A58   A(28,30,32)           121.7213         estimate D2E/DX2                !
 ! A59   A(31,30,32)           118.2754         estimate D2E/DX2                !
 ! A60   A(30,32,33)           118.6836         estimate D2E/DX2                !
 ! A61   A(30,32,34)           122.4714         estimate D2E/DX2                !
 ! A62   A(33,32,34)           118.845          estimate D2E/DX2                !
 ! A63   A(3,34,26)            122.5104         estimate D2E/DX2                !
 ! A64   A(3,34,32)            120.3392         estimate D2E/DX2                !
 ! A65   A(26,34,32)           117.1503         estimate D2E/DX2                !
 ! A66   A(27,35,36)           128.3059         estimate D2E/DX2                !
 ! A67   A(27,35,37)           109.3239         estimate D2E/DX2                !
 ! A68   A(36,35,37)           122.3702         estimate D2E/DX2                !
 ! A69   A(35,37,38)            96.0341         estimate D2E/DX2                !
 ! A70   A(26,38,37)           109.2858         estimate D2E/DX2                !
 ! D1    D(3,1,2,5)             -0.0191         estimate D2E/DX2                !
 ! D2    D(3,1,2,9)            179.98           estimate D2E/DX2                !
 ! D3    D(12,1,2,5)           179.9936         estimate D2E/DX2                !
 ! D4    D(12,1,2,9)            -0.0073         estimate D2E/DX2                !
 ! D5    D(2,1,3,4)              0.0157         estimate D2E/DX2                !
 ! D6    D(2,1,3,34)           179.9785         estimate D2E/DX2                !
 ! D7    D(12,1,3,4)          -179.9969         estimate D2E/DX2                !
 ! D8    D(12,1,3,34)           -0.034          estimate D2E/DX2                !
 ! D9    D(1,2,5,4)              0.0152         estimate D2E/DX2                !
 ! D10   D(1,2,5,6)           -179.9975         estimate D2E/DX2                !
 ! D11   D(9,2,5,4)           -179.9838         estimate D2E/DX2                !
 ! D12   D(9,2,5,6)              0.0035         estimate D2E/DX2                !
 ! D13   D(1,3,4,5)             -0.0049         estimate D2E/DX2                !
 ! D14   D(1,3,4,7)            179.9838         estimate D2E/DX2                !
 ! D15   D(34,3,4,5)          -179.9639         estimate D2E/DX2                !
 ! D16   D(34,3,4,7)             0.0248         estimate D2E/DX2                !
 ! D17   D(1,3,34,26)           -0.0002         estimate D2E/DX2                !
 ! D18   D(1,3,34,32)          179.9932         estimate D2E/DX2                !
 ! D19   D(4,3,34,26)          179.953          estimate D2E/DX2                !
 ! D20   D(4,3,34,32)           -0.0535         estimate D2E/DX2                !
 ! D21   D(3,4,5,2)             -0.0068         estimate D2E/DX2                !
 ! D22   D(3,4,5,6)           -179.9987         estimate D2E/DX2                !
 ! D23   D(7,4,5,2)           -179.9996         estimate D2E/DX2                !
 ! D24   D(7,4,5,6)              0.0085         estimate D2E/DX2                !
 ! D25   D(3,4,7,8)            179.9939         estimate D2E/DX2                !
 ! D26   D(3,4,7,10)            -0.0071         estimate D2E/DX2                !
 ! D27   D(5,4,7,8)             -0.0174         estimate D2E/DX2                !
 ! D28   D(5,4,7,10)           179.9816         estimate D2E/DX2                !
 ! D29   D(2,5,6,8)           -179.9828         estimate D2E/DX2                !
 ! D30   D(2,5,6,21)            -0.0213         estimate D2E/DX2                !
 ! D31   D(4,5,6,8)              0.0045         estimate D2E/DX2                !
 ! D32   D(4,5,6,21)           179.966          estimate D2E/DX2                !
 ! D33   D(5,6,8,7)             -0.0167         estimate D2E/DX2                !
 ! D34   D(5,6,8,11)           179.9952         estimate D2E/DX2                !
 ! D35   D(21,6,8,7)          -179.9819         estimate D2E/DX2                !
 ! D36   D(21,6,8,11)            0.03           estimate D2E/DX2                !
 ! D37   D(5,6,21,13)         -179.9432         estimate D2E/DX2                !
 ! D38   D(5,6,21,19)            0.0644         estimate D2E/DX2                !
 ! D39   D(8,6,21,13)            0.0131         estimate D2E/DX2                !
 ! D40   D(8,6,21,19)         -179.9793         estimate D2E/DX2                !
 ! D41   D(4,7,8,6)              0.0212         estimate D2E/DX2                !
 ! D42   D(4,7,8,11)          -179.991          estimate D2E/DX2                !
 ! D43   D(10,7,8,6)          -179.978          estimate D2E/DX2                !
 ! D44   D(10,7,8,11)            0.0099         estimate D2E/DX2                !
 ! D45   D(21,13,14,15)          0.028          estimate D2E/DX2                !
 ! D46   D(21,13,14,22)       -179.9947         estimate D2E/DX2                !
 ! D47   D(25,13,14,15)       -179.9773         estimate D2E/DX2                !
 ! D48   D(25,13,14,22)          0.0            estimate D2E/DX2                !
 ! D49   D(14,13,21,6)         179.9503         estimate D2E/DX2                !
 ! D50   D(14,13,21,19)         -0.0571         estimate D2E/DX2                !
 ! D51   D(25,13,21,6)          -0.044          estimate D2E/DX2                !
 ! D52   D(25,13,21,19)        179.9486         estimate D2E/DX2                !
 ! D53   D(14,13,25,24)          0.0028         estimate D2E/DX2                !
 ! D54   D(21,13,25,24)        179.9973         estimate D2E/DX2                !
 ! D55   D(13,14,15,16)        179.996          estimate D2E/DX2                !
 ! D56   D(13,14,15,17)          0.0065         estimate D2E/DX2                !
 ! D57   D(22,14,15,16)          0.0239         estimate D2E/DX2                !
 ! D58   D(22,14,15,17)       -179.9656         estimate D2E/DX2                !
 ! D59   D(13,14,22,23)        179.9989         estimate D2E/DX2                !
 ! D60   D(13,14,22,24)         -0.0028         estimate D2E/DX2                !
 ! D61   D(15,14,22,23)         -0.0266         estimate D2E/DX2                !
 ! D62   D(15,14,22,24)        179.9717         estimate D2E/DX2                !
 ! D63   D(14,15,17,18)        179.9921         estimate D2E/DX2                !
 ! D64   D(14,15,17,19)         -0.0108         estimate D2E/DX2                !
 ! D65   D(16,15,17,18)          0.0027         estimate D2E/DX2                !
 ! D66   D(16,15,17,19)        179.9999         estimate D2E/DX2                !
 ! D67   D(15,17,19,20)        179.9935         estimate D2E/DX2                !
 ! D68   D(15,17,19,21)         -0.0213         estimate D2E/DX2                !
 ! D69   D(18,17,19,20)         -0.0092         estimate D2E/DX2                !
 ! D70   D(18,17,19,21)        179.9759         estimate D2E/DX2                !
 ! D71   D(17,19,21,6)        -179.9526         estimate D2E/DX2                !
 ! D72   D(17,19,21,13)          0.0546         estimate D2E/DX2                !
 ! D73   D(20,19,21,6)           0.0325         estimate D2E/DX2                !
 ! D74   D(20,19,21,13)       -179.9603         estimate D2E/DX2                !
 ! D75   D(14,22,24,25)          0.0039         estimate D2E/DX2                !
 ! D76   D(23,22,24,25)       -179.9977         estimate D2E/DX2                !
 ! D77   D(22,24,25,13)         -0.0039         estimate D2E/DX2                !
 ! D78   D(34,26,27,28)         -0.0272         estimate D2E/DX2                !
 ! D79   D(34,26,27,35)        179.9953         estimate D2E/DX2                !
 ! D80   D(38,26,27,28)        179.9781         estimate D2E/DX2                !
 ! D81   D(38,26,27,35)          0.0005         estimate D2E/DX2                !
 ! D82   D(27,26,34,3)        -179.9506         estimate D2E/DX2                !
 ! D83   D(27,26,34,32)          0.0558         estimate D2E/DX2                !
 ! D84   D(38,26,34,3)           0.0436         estimate D2E/DX2                !
 ! D85   D(38,26,34,32)       -179.95           estimate D2E/DX2                !
 ! D86   D(27,26,38,37)         -0.0033         estimate D2E/DX2                !
 ! D87   D(34,26,38,37)       -179.9977         estimate D2E/DX2                !
 ! D88   D(26,27,28,29)       -179.9951         estimate D2E/DX2                !
 ! D89   D(26,27,28,30)         -0.0065         estimate D2E/DX2                !
 ! D90   D(35,27,28,29)         -0.0226         estimate D2E/DX2                !
 ! D91   D(35,27,28,30)        179.966          estimate D2E/DX2                !
 ! D92   D(26,27,35,36)       -179.9996         estimate D2E/DX2                !
 ! D93   D(26,27,35,37)          0.0024         estimate D2E/DX2                !
 ! D94   D(28,27,35,36)          0.0256         estimate D2E/DX2                !
 ! D95   D(28,27,35,37)       -179.9724         estimate D2E/DX2                !
 ! D96   D(27,28,30,31)       -179.9915         estimate D2E/DX2                !
 ! D97   D(27,28,30,32)          0.0104         estimate D2E/DX2                !
 ! D98   D(29,28,30,31)         -0.0031         estimate D2E/DX2                !
 ! D99   D(29,28,30,32)        179.9989         estimate D2E/DX2                !
 ! D100  D(28,30,32,33)       -179.9935         estimate D2E/DX2                !
 ! D101  D(28,30,32,34)          0.0211         estimate D2E/DX2                !
 ! D102  D(31,30,32,33)          0.0084         estimate D2E/DX2                !
 ! D103  D(31,30,32,34)       -179.977          estimate D2E/DX2                !
 ! D104  D(30,32,34,3)         179.9527         estimate D2E/DX2                !
 ! D105  D(30,32,34,26)         -0.0536         estimate D2E/DX2                !
 ! D106  D(33,32,34,3)          -0.0328         estimate D2E/DX2                !
 ! D107  D(33,32,34,26)        179.961          estimate D2E/DX2                !
 ! D108  D(27,35,37,38)         -0.0038         estimate D2E/DX2                !
 ! D109  D(36,35,37,38)        179.9981         estimate D2E/DX2                !
 ! D110  D(35,37,38,26)          0.0041         estimate D2E/DX2                !
 --------------------------------------------------------------------------------
 Trust Radius=3.00D-01 FncErr=1.00D-07 GrdErr=1.00D-06
 Number of steps in this run=    228 maximum allowed number of steps=    228.
 GradGradGradGradGradGradGradGradGradGradGradGradGradGradGradGradGradGrad

                          Input orientation:                          
 ---------------------------------------------------------------------
 Center     Atomic      Atomic             Coordinates (Angstroms)
 Number     Number       Type             X           Y           Z
 ---------------------------------------------------------------------
      1          7           0       -0.809459   -1.148725   -1.858158
      2          6           0       -1.042471    0.245048   -1.816123
      3          6           0       -0.105390   -1.613252   -0.758783
      4          6           0        0.147299   -0.509090    0.052502
      5          6           0       -0.413283    0.649535   -0.564428
      6          6           0       -0.160576    1.753707    0.246831
      7          6           0        0.776474   -0.104593    1.304198
      8          7           0        0.543505    1.289182    1.346212
      9          8           0       -1.647573    0.867652   -2.688590
     10          8           0        1.381543   -0.727212    2.176680
     11          1           0        0.853757    1.897575    2.097080
     12          1           0       -1.119676   -1.757103   -2.609053
     13          6           0       -0.158541    4.168373    1.038357
     14          6           0       -0.542652    5.547515    0.803959
     15          6           0       -1.268675    5.905549   -0.369567
     16          1           0       -1.553730    6.938976   -0.540153
     17          6           0       -1.592923    4.916653   -1.266566
     18          1           0       -2.145393    5.161578   -2.168230
     19          6           0       -1.223230    3.560578   -1.050468
     20          1           0       -1.505607    2.817986   -1.792892
     21          6           0       -0.514709    3.149891    0.073489
     22          6           0       -0.097800    6.343013    1.853750
     23          1           0       -0.219323    7.410255    1.984788
     24         16           0        0.718566    5.372117    2.989735
     25          7           0        0.519861    3.939946    2.170372
     26          6           0       -0.107249   -4.027886   -1.550442
     27          6           0        0.276833   -5.407026   -1.316017
     28          6           0        1.002603   -5.765107   -0.142340
     29          1           0        1.287638   -6.798541    0.028231
     30          6           0        1.326634   -4.776253    0.754776
     31          1           0        1.878914   -5.021200    1.656550
     32          6           0        0.956969   -3.420167    0.538651
     33          1           0        1.239162   -2.677596    1.281164
     34          6           0        0.248707   -3.009438   -0.585445
     35          6           0       -0.167774   -6.202489   -2.365939
     36          1           0       -0.046201   -7.269721   -2.497012
     37         16           0       -0.983917   -5.231562   -3.502059
     38          7           0       -0.785415   -3.799413   -2.682585
 ---------------------------------------------------------------------
                    Distance matrix (angstroms):
                    1          2          3          4          5
     1  N    0.000000
     2  C    1.413741   0.000000
     3  C    1.385685   2.334388   0.000000
     4  C    2.230502   2.340093   1.393273   0.000000
     5  C    2.250429   1.458159   2.291894   1.427329   0.000000
     6  C    3.643644   2.703622   3.514359   2.291899   1.393269
     7  C    3.688616   3.628665   2.703632   1.458157   2.340084
     8  N    4.247575   3.688617   3.643651   2.250433   2.230501
     9  O    2.336200   1.230846   3.501052   3.553951   2.466396
    10  O    4.610649   4.771122   3.407782   2.466388   3.553942
    11  H    5.262142   4.651847   4.626210   3.235957   3.201034
    12  H    1.014989   2.154833   2.114939   3.201037   3.235953
    13  C    6.089747   4.931721   6.054727   4.790001   3.875053
    14  C    7.210942   5.935554   7.342339   6.141920   5.087183
    15  C    7.224235   5.846791   7.618208   6.582607   5.328729
    16  H    8.228122   6.833605   8.676756   7.662795   6.392048
    17  C    6.144315   4.735916   6.716417   5.848675   4.482504
    18  H    6.457615   5.051008   7.214324   6.507270   5.092241
    19  C    4.795947   3.407586   5.301242   4.433632   3.060461
    20  H    4.027863   2.614392   4.760867   4.148134   2.721117
    21  C    4.721889   3.505322   4.852602   3.718446   2.582442
    22  C    8.391118   7.179523   8.374219   7.089138   6.193772
    23  H    9.400672   8.152588   9.432065   8.159912   7.227964
    24  S    8.267908   7.244609   7.970299   6.598657   6.017968
    25  N    6.625007   5.655554   6.309429   4.941467   4.379120
    26  C    2.979489   4.382145   2.541099   3.875068   4.790005
    27  C    4.427988   5.825514   3.853482   5.087180   6.141912
    28  C    5.247722   6.565504   4.341146   5.328717   6.582592
    29  H    6.314800   7.644815   5.426522   6.392038   7.662781
    30  C    4.954723   6.118467   3.787628   4.482488   5.848657
    31  H    5.880186   6.951785   4.624436   5.092209   6.507238
    32  C    3.744918   4.793383   2.465134   3.060437   4.433604
    33  H    4.048412   4.831240   2.664964   2.721065   4.148082
    34  C    2.490335   3.711252   1.450781   2.582441   3.718435
    35  C    5.119583   6.529788   4.862915   6.193781   7.089143
    36  H    6.201394   7.611039   5.917819   7.227973   8.159917
    37  S    4.404816   5.730538   4.624883   6.017998   6.598682
    38  N    2.776041   4.144213   2.990443   4.379142   4.941478
                    6          7          8          9         10
     6  C    0.000000
     7  C    2.334388   0.000000
     8  N    1.385696   1.413736   0.000000
     9  O    3.407778   4.771124   4.610655   0.000000
    10  O    3.501058   1.230848   2.336200   5.948948   0.000000
    11  H    2.114945   2.154834   1.014988   5.497275   2.678507
    12  H    4.626201   4.651850   5.262143   2.678496   5.497273
    13  C    2.541088   4.382141   2.979494   5.196355   5.256842
    14  C    3.853486   5.825518   4.427999   5.943052   6.705154
    15  C    4.341154   6.565511   5.247736   5.558942   7.582912
    16  H    5.426531   7.644825   6.314819   6.440929   8.646817
    17  C    3.787640   6.118479   4.954743   4.291800   7.249593
    18  H    4.624457   6.951807   5.880215   4.353895   8.123753
    19  C    2.465157   4.793407   3.744952   3.180466   5.965272
    20  H    2.665008   4.831286   4.048466   2.150868   6.054880
    21  C    1.450789   3.711262   2.490357   3.757802   4.801157
    22  C    4.862906   6.529777   5.119578   7.281087   7.230548
    23  H    5.917810   7.611029   6.201389   8.166151   8.295659
    24  S    4.624857   5.730510   4.404790   7.624447   6.188894
    25  N    2.990426   4.144201   2.776031   6.143799   4.746040
    26  C    6.054738   4.931751   6.089770   5.256831   5.196382
    27  C    7.342337   5.935568   7.210949   6.705138   5.943061
    28  C    7.618202   5.846796   7.224234   7.582896   5.558942
    29  H    8.676754   6.833617   8.228127   8.646797   6.440938
    30  C    6.716411   4.735921   6.144314   7.249575   4.291801
    31  H    7.214305   5.050995   6.457596   8.123726   4.353877
    32  C    5.301230   3.407590   4.795944   5.965242   3.180473
    33  H    4.760836   2.614375   4.027840   6.054830   2.150865
    34  C    4.852602   3.505341   4.721900   4.801138   3.757820
    35  C    8.374227   7.179544   8.391133   7.230546   7.281101
    36  H    9.432073   8.152610   9.400689   8.295658   8.166166
    37  S    7.970323   7.244646   8.267941   6.188908   7.624477
    38  N    6.309441   5.655584   6.625031   4.746035   6.143825
                   11         12         13         14         15
    11  H    0.000000
    12  H    6.276846   0.000000
    13  C    2.702252   7.024147   0.000000
    14  C    4.116331   8.083257   1.450695   0.000000
    15  C    5.162647   7.984594   2.496483   1.425644   0.000000
    16  H    6.177922   8.949332   3.480587   2.182906   1.085508
    17  C    5.139571   6.823874   2.816034   2.405853   1.373921
    18  H    6.151543   7.008179   3.900800   3.398769   2.134787
    19  C    4.121470   5.542350   2.422017   2.801786   2.442249
    20  H    4.641728   4.663314   3.413811   3.888605   3.408084
    21  C    2.745162   5.624998   1.447457   2.506585   2.891092
    22  C    4.552646   9.304446   2.323277   1.390242   2.550581
    23  H    5.617273  10.293418   3.377754   2.229058   2.984672
    24  S    3.589924   9.249397   2.454830   2.529635   3.939364
    25  N    2.070782   7.614943   1.339353   2.362265   3.676105
    26  C    7.024175   2.702244   8.595532   9.870212  10.070576
    27  C    8.083271   4.116323   9.870202  11.187843  11.456820
    28  C    7.984601   5.162639  10.070567  11.456819  11.891785
    29  H    8.949348   6.177906  11.107880  12.505072  12.964833
    30  C    6.823883   5.139557   9.071521  10.491751  11.049917
    31  H    7.008171   6.151523   9.433008  10.876058  11.550165
    32  C    5.542358   4.121441   7.686352   9.096075   9.630542
    33  H    4.663308   4.641682   6.991410   8.429415   9.093104
    34  C    5.625016   2.745142   7.370451   8.705064   9.045775
    35  C    9.304467   4.552656  10.915315  12.175852  12.320798
    36  H   10.293441   5.617282  11.972529  13.244788  13.401799
    37  S    9.249432   3.589952  10.471647  11.615722  11.572763
    38  N    7.614969   2.070789   8.816121   9.978977   9.988487
                   16         17         18         19         20
    16  H    0.000000
    17  C    2.149186   0.000000
    18  H    2.481903   1.085454   0.000000
    19  C    3.432670   1.422080   2.159393   0.000000
    20  H    4.307462   2.165421   2.458176   1.087370   0.000000
    21  C    3.976592   2.465713   3.425101   1.390664   2.139023
    22  C    2.864555   3.742495   4.665271   4.176484   5.263624
    23  H    2.894490   4.321589   5.100378   5.004060   6.083940
    24  S    4.480902   4.864825   5.903490   4.834820   5.860380
    25  N    4.543226   4.150946   5.236357   3.681860   4.590074
    26  C   11.107882   9.071526   9.433024   7.686363   6.991434
    27  C   12.505067  10.491748  10.876067   9.096078   8.429432
    28  C   12.964830  11.049916  11.550176   9.630547   9.093125
    29  H   14.039794  12.133421  12.635450  10.713515  10.178227
    30  C   12.133422  10.322890  10.925174   8.903003   8.496156
    31  H   12.635441  10.925163  11.597972   9.518306   9.209043
    32  C   10.713509   8.902995   9.518309   7.483941   7.100347
    33  H   10.178207   8.496132   9.209027   7.100331   6.869134
    34  C   10.110478   8.165687   8.660394   6.748923   6.204387
    35  C   13.339883  11.263880  11.536554   9.907670   9.137130
    36  H   14.421824  12.345609  12.611578  10.989689  10.217019
    37  S   12.538723  10.409351  10.542556   9.130679   8.245522
    38  N   10.976945   8.867186   9.078186   7.551487   6.715668
                   21         22         23         24         25
    21  C    0.000000
    22  C    3.679561   0.000000
    23  H    4.678784   1.082102   0.000000
    24  S    3.868300   1.702808   2.458365   0.000000
    25  N    2.468084   2.501297   3.553010   1.661913   0.000000
    26  C    7.370458  10.915318  11.972530  10.471640   8.816126
    27  C    8.705061  12.175844  13.244779  11.615703   9.978971
    28  C    9.045773  12.320789  13.401789  11.572741   9.988480
    29  H   10.110480  13.339880  14.421821  12.538711  10.976946
    30  C    8.165688  11.263873  12.345602  10.409332   8.867182
    31  H    8.660383  11.536534  12.611559  10.542525   9.078170
    32  C    6.748917   9.907659  10.989678   9.130658   7.551479
    33  H    6.204365   9.137106  10.216996   8.245491   6.715649
    34  C    6.241341   9.671509  10.742214   9.124316   7.480775
    35  C    9.671514  13.236325  14.291196  12.784379  11.131934
    36  H   10.742220  14.291197  15.349860  13.802367  12.155720
    37  S    9.124333  12.784392  13.802378  12.549097  10.888268
    38  N    7.480779  11.131934  12.155718  10.888257   9.227817
                   26         27         28         29         30
    26  C    0.000000
    27  C    1.450690   0.000000
    28  C    2.496489   1.425651   0.000000
    29  H    3.480581   2.182898   1.085507   0.000000
    30  C    2.816044   2.405855   1.373916   2.149195   0.000000
    31  H    3.900809   3.398776   2.134789   2.481929   1.085453
    32  C    2.422022   2.801783   2.442248   3.432678   1.422087
    33  H    3.413810   3.888601   3.408086   4.307479   2.165432
    34  C    1.447467   2.506582   2.891092   3.976591   2.465716
    35  C    2.323273   1.390242   2.550584   2.864533   3.742495
    36  H    3.377753   2.229065   2.984683   2.894476   4.321595
    37  S    2.454830   2.529636   3.939371   4.480885   4.864833
    38  N    1.339349   2.362266   3.676113   4.543219   4.150954
                   31         32         33         34         35
    31  H    0.000000
    32  C    2.159395   0.000000
    33  H    2.458186   1.087368   0.000000
    34  C    3.425099   1.390656   2.139007   0.000000
    35  C    4.665275   4.176482   5.263620   3.679564   0.000000
    36  H    5.100391   5.004065   6.083945   4.678789   1.082102
    37  S    5.903499   4.834824   5.860379   3.868312   1.702809
    38  N    5.236364   3.681860   4.590064   2.468089   2.501304
                   36         37         38
    36  H    0.000000
    37  S    2.458358   0.000000
    38  N    3.553015   1.661924   0.000000
 Symmetry turned off by external request.
 Stoichiometry    C20H10N4O2S2
 Framework group  C1[X(C20H10N4O2S2)]
 Deg. of freedom   108
 Full point group                 C1      NOp   1
 Rotational constants (GHZ):      0.4341158      0.0706150      0.0607355
 Standard basis: 6-31+G(d,p) (6D, 7F)
 Integral buffers will be    262144 words long.
 Raffenetti 2 integral format.
 Two-electron integral symmetry is turned off.
   590 basis functions,  1014 primitive gaussians,   590 cartesian basis functions
   103 alpha electrons      103 beta electrons
       nuclear repulsion energy      2617.2837832782 Hartrees.
 NAtoms=   38 NActive=   38 NUniq=   38 SFac= 1.00D+00 NAtFMM=   50 NAOKFM=F Big=F
 One-electron integrals computed using PRISM.
 NBasis=   590 RedAO= T  NBF=   590
 NBsUse=   580 1.00D-06 NBFU=   580
 Harris functional with IExCor=  402 diagonalized for initial guess.
 ExpMin= 4.05D-02 ExpMax= 2.19D+04 ExpMxC= 3.30D+03 IAcc=2 IRadAn=         0 AccDes= 0.00D+00
 HarFok:  IExCor=  402 AccDes= 0.00D+00 IRadAn=         0 IDoV= 1
 ScaDFX=  1.000000  1.000000  1.000000  1.000000
 FoFCou: FMM=F IPFlag=           0 FMFlag=      100000 FMFlg1=           0
         NFxFlg=           0 DoJE=T BraDBF=F KetDBF=T FulRan=T
         Omega=  0.000000  0.000000  1.000000  0.000000  0.000000 ICntrl=     500 IOpCl=  0
         NMat0=    1 NMatS0=    1 NMatT0=    0 NMatD0=    1 NMtDS0=    0 NMtDT0=    0
         I1Cent=           4 NGrid=           0.
 Symmetry not used in FoFCou.
 Requested convergence on RMS density matrix=1.00D-08 within 128 cycles.
 Requested convergence on MAX density matrix=1.00D-06.
 Requested convergence on             energy=1.00D-06.
 No special actions if energy rises.
 EnCoef did     3 forward-backward iterations
 EnCoef did     1 forward-backward iterations
 Restarting incremental Fock formation.
 SCF Done:  E(RB3LYP) =  -1934.04859902     A.U. after   24 cycles
             Convg  =    0.7716D-08             -V/T =  2.0069

 **********************************************************************

            Population analysis using the SCF density.

 **********************************************************************

 Alpha  occ. eigenvalues --  -88.96991 -88.96991 -19.13096 -19.13096 -14.37734
 Alpha  occ. eigenvalues --  -14.37734 -14.37691 -14.37691 -10.29809 -10.29809
 Alpha  occ. eigenvalues --  -10.26562 -10.26562 -10.25968 -10.25967 -10.25471
 Alpha  occ. eigenvalues --  -10.25470 -10.23376 -10.23376 -10.23172 -10.23172
 Alpha  occ. eigenvalues --  -10.22419 -10.22419 -10.21535 -10.21535 -10.21457
 Alpha  occ. eigenvalues --  -10.21457 -10.19279 -10.19234  -8.02585  -8.02584
 Alpha  occ. eigenvalues --   -5.99075  -5.99075  -5.98570  -5.98570  -5.98347
 Alpha  occ. eigenvalues --   -5.98347  -1.04463  -1.03944  -0.99216  -0.99191
 Alpha  occ. eigenvalues --   -0.97224  -0.95865  -0.87008  -0.87005  -0.83026
 Alpha  occ. eigenvalues --   -0.83014  -0.80606  -0.78042  -0.77092  -0.76796
 Alpha  occ. eigenvalues --   -0.76741  -0.71943  -0.69253  -0.67132  -0.65042
 Alpha  occ. eigenvalues --   -0.64168  -0.62397  -0.61445  -0.60896  -0.60572
 Alpha  occ. eigenvalues --   -0.57102  -0.54964  -0.53946  -0.53272  -0.50923
 Alpha  occ. eigenvalues --   -0.50358  -0.49798  -0.48966  -0.48870  -0.47912
 Alpha  occ. eigenvalues --   -0.46975  -0.46549  -0.45136  -0.45016  -0.44981
 Alpha  occ. eigenvalues --   -0.44564  -0.44325  -0.43489  -0.43004  -0.41966
 Alpha  occ. eigenvalues --   -0.39603  -0.39602  -0.38947  -0.38554  -0.38309
 Alpha  occ. eigenvalues --   -0.37829  -0.37737  -0.37393  -0.36904  -0.35069
 Alpha  occ. eigenvalues --   -0.34487  -0.32173  -0.31907  -0.31623  -0.31230
 Alpha  occ. eigenvalues --   -0.27718  -0.27625  -0.27475  -0.26214  -0.25821
 Alpha  occ. eigenvalues --   -0.25392  -0.24891  -0.19277
 Alpha virt. eigenvalues --   -0.11361  -0.09289  -0.07026  -0.02553  -0.01779
 Alpha virt. eigenvalues --   -0.01778  -0.00543  -0.00522  -0.00490  -0.00382
 Alpha virt. eigenvalues --    0.00460   0.01202   0.01226   0.01845   0.02222
 Alpha virt. eigenvalues --    0.02499   0.02633   0.03131   0.03778   0.04268
 Alpha virt. eigenvalues --    0.04363   0.04472   0.05284   0.05896   0.06020
 Alpha virt. eigenvalues --    0.06045   0.06581   0.07064   0.07218   0.07903
 Alpha virt. eigenvalues --    0.08007   0.08066   0.08771   0.09320   0.09583
 Alpha virt. eigenvalues --    0.09588   0.10003   0.10160   0.10920   0.10926
 Alpha virt. eigenvalues --    0.10930   0.11071   0.11801   0.12341   0.12520
 Alpha virt. eigenvalues --    0.12528   0.12996   0.13290   0.13703   0.14173
 Alpha virt. eigenvalues --    0.14178   0.14433   0.15034   0.15309   0.15977
 Alpha virt. eigenvalues --    0.16043   0.16178   0.16323   0.16456   0.17002
 Alpha virt. eigenvalues --    0.17109   0.17164   0.17350   0.17592   0.17661
 Alpha virt. eigenvalues --    0.17886   0.18143   0.18277   0.18381   0.19000
 Alpha virt. eigenvalues --    0.19676   0.19722   0.19818   0.20224   0.20338
 Alpha virt. eigenvalues --    0.20684   0.21414   0.21913   0.22112   0.22215
 Alpha virt. eigenvalues --    0.22317   0.22329   0.22843   0.22907   0.23101
 Alpha virt. eigenvalues --    0.23177   0.23830   0.24018   0.24374   0.24549
 Alpha virt. eigenvalues --    0.24807   0.25268   0.25635   0.25768   0.25828
 Alpha virt. eigenvalues --    0.26305   0.26347   0.26891   0.26957   0.27856
 Alpha virt. eigenvalues --    0.27916   0.28098   0.28133   0.28279   0.28328
 Alpha virt. eigenvalues --    0.28690   0.29063   0.29554   0.29584   0.29847
 Alpha virt. eigenvalues --    0.29941   0.30608   0.30969   0.31545   0.31670
 Alpha virt. eigenvalues --    0.32013   0.32301   0.32611   0.33102   0.33685
 Alpha virt. eigenvalues --    0.33789   0.33826   0.34030   0.34591   0.34919
 Alpha virt. eigenvalues --    0.35972   0.36684   0.37409   0.38413   0.38563
 Alpha virt. eigenvalues --    0.39240   0.39568   0.40555   0.41168   0.42050
 Alpha virt. eigenvalues --    0.42519   0.42567   0.44218   0.44915   0.44919
 Alpha virt. eigenvalues --    0.45291   0.45316   0.48465   0.48659   0.48698
 Alpha virt. eigenvalues --    0.48920   0.49119   0.49189   0.50237   0.50861
 Alpha virt. eigenvalues --    0.51112   0.51366   0.52301   0.53040   0.55944
 Alpha virt. eigenvalues --    0.56202   0.58372   0.59090   0.60091   0.60502
 Alpha virt. eigenvalues --    0.62192   0.62314   0.62888   0.62925   0.63912
 Alpha virt. eigenvalues --    0.64645   0.66226   0.66864   0.66909   0.67717
 Alpha virt. eigenvalues --    0.67844   0.67852   0.68780   0.70419   0.70662
 Alpha virt. eigenvalues --    0.71033   0.71235   0.71947   0.72291   0.72756
 Alpha virt. eigenvalues --    0.72931   0.73244   0.73626   0.74485   0.75261
 Alpha virt. eigenvalues --    0.75347   0.75442   0.76145   0.76484   0.77132
 Alpha virt. eigenvalues --    0.77567   0.78558   0.78955   0.79531   0.80100
 Alpha virt. eigenvalues --    0.80169   0.80940   0.82796   0.83757   0.83854
 Alpha virt. eigenvalues --    0.84100   0.84982   0.85400   0.85522   0.86193
 Alpha virt. eigenvalues --    0.87955   0.88357   0.88605   0.89020   0.91009
 Alpha virt. eigenvalues --    0.91140   0.93729   0.95161   0.95942   0.96477
 Alpha virt. eigenvalues --    0.96749   0.98036   0.98436   0.99202   1.00247
 Alpha virt. eigenvalues --    1.00883   1.00913   1.02936   1.03237   1.03624
 Alpha virt. eigenvalues --    1.04022   1.04359   1.04650   1.06143   1.06540
 Alpha virt. eigenvalues --    1.07085   1.09309   1.10080   1.10249   1.11085
 Alpha virt. eigenvalues --    1.12155   1.13636   1.13959   1.16294   1.16916
 Alpha virt. eigenvalues --    1.18658   1.19007   1.19637   1.19710   1.20052
 Alpha virt. eigenvalues --    1.20378   1.20873   1.22133   1.22192   1.22558
 Alpha virt. eigenvalues --    1.24938   1.25210   1.25919   1.26118   1.26795
 Alpha virt. eigenvalues --    1.27603   1.27640   1.28230   1.28813   1.29062
 Alpha virt. eigenvalues --    1.29816   1.30196   1.30211   1.30260   1.31386
 Alpha virt. eigenvalues --    1.31757   1.32220   1.33869   1.34976   1.35314
 Alpha virt. eigenvalues --    1.35871   1.35964   1.36267   1.36489   1.36677
 Alpha virt. eigenvalues --    1.37346   1.37469   1.37778   1.38957   1.39126
 Alpha virt. eigenvalues --    1.40003   1.40236   1.41029   1.41916   1.42550
 Alpha virt. eigenvalues --    1.44586   1.44793   1.48354   1.48697   1.50644
 Alpha virt. eigenvalues --    1.52062   1.53167   1.54707   1.58511   1.58969
 Alpha virt. eigenvalues --    1.63079   1.63315   1.63826   1.64678   1.64688
 Alpha virt. eigenvalues --    1.65656   1.70097   1.71086   1.71310   1.72778
 Alpha virt. eigenvalues --    1.73007   1.75321   1.75915   1.76636   1.78960
 Alpha virt. eigenvalues --    1.79049   1.79052   1.79969   1.81527   1.82792
 Alpha virt. eigenvalues --    1.82824   1.83633   1.84335   1.85819   1.85929
 Alpha virt. eigenvalues --    1.86062   1.88234   1.88893   1.89970   1.91108
 Alpha virt. eigenvalues --    1.91561   1.93388   1.94150   1.94513   1.94747
 Alpha virt. eigenvalues --    1.95046   1.95513   1.96075   1.97038   1.97301
 Alpha virt. eigenvalues --    1.98141   1.98937   1.98978   2.02718   2.02804
 Alpha virt. eigenvalues --    2.05034   2.05211   2.06230   2.07149   2.09664
 Alpha virt. eigenvalues --    2.10450   2.11651   2.13291   2.14169   2.14692
 Alpha virt. eigenvalues --    2.14987   2.16453   2.16571   2.18196   2.19371
 Alpha virt. eigenvalues --    2.20414   2.22471   2.24271   2.24551   2.24835
 Alpha virt. eigenvalues --    2.26687   2.28280   2.29219   2.29615   2.31845
 Alpha virt. eigenvalues --    2.32243   2.32775   2.33146   2.37258   2.37431
 Alpha virt. eigenvalues --    2.37736   2.39545   2.39614   2.40628   2.41569
 Alpha virt. eigenvalues --    2.42505   2.43677   2.43916   2.46347   2.46643
 Alpha virt. eigenvalues --    2.46814   2.47268   2.48248   2.48501   2.48533
 Alpha virt. eigenvalues --    2.49453   2.49690   2.51396   2.52858   2.54165
 Alpha virt. eigenvalues --    2.55241   2.57341   2.57961   2.58445   2.58578
 Alpha virt. eigenvalues --    2.61280   2.61444   2.61737   2.63234   2.63321
 Alpha virt. eigenvalues --    2.64066   2.65610   2.65836   2.68463   2.68612
 Alpha virt. eigenvalues --    2.69911   2.72491   2.72633   2.73140   2.75504
 Alpha virt. eigenvalues --    2.77461   2.78922   2.80614   2.81419   2.83418
 Alpha virt. eigenvalues --    2.84495   2.84964   2.88049   2.89155   2.91756
 Alpha virt. eigenvalues --    2.94505   2.98189   3.00338   3.01266   3.03453
 Alpha virt. eigenvalues --    3.04396   3.05472   3.08814   3.08989   3.12329
 Alpha virt. eigenvalues --    3.15418   3.21153   3.21610   3.23779   3.28215
 Alpha virt. eigenvalues --    3.28549   3.28655   3.30677   3.31348   3.40161
 Alpha virt. eigenvalues --    3.44305   3.44837   3.44845   3.47690   3.51556
 Alpha virt. eigenvalues --    3.61306   3.62238   3.79071   3.79238   3.97364
 Alpha virt. eigenvalues --    3.97380   4.16426   4.18350   4.27242   4.28601
 Alpha virt. eigenvalues --    4.31219   4.32154   4.33271   4.33795   4.36757
 Alpha virt. eigenvalues --    4.37556   4.38152   4.39001   4.44366   4.46416
 Alpha virt. eigenvalues --    4.48967   4.51232   4.52628   4.57356   4.59216
 Alpha virt. eigenvalues --    4.62810   4.70847   4.78727   4.87346   4.88401
 Alpha virt. eigenvalues --    5.06246   5.13956
          Condensed to atoms (all electrons):
              1          2          3          4          5          6
     1  N    7.471307   0.430328  -0.090674  -0.131778  -0.383977  -0.010687
     2  C    0.430328   9.085346  -1.066306  -0.868673  -2.402891  -0.077094
     3  C   -0.090674  -1.066306   8.562945  -0.578019  -0.767535   0.850105
     4  C   -0.131778  -0.868673  -0.578019  11.054948   0.543238  -0.767620
     5  C   -0.383977  -2.402891  -0.767535   0.543238  11.054819  -0.578077
     6  C   -0.010687  -0.077094   0.850105  -0.767620  -0.578077   8.563082
     7  C    0.019007   0.931353  -0.077067  -2.402967  -0.868718  -1.066305
     8  N    0.001175   0.019013  -0.010684  -0.383968  -0.131770  -0.090674
     9  O   -0.073615   0.190280  -0.014443   0.011955   0.152825   0.000320
    10  O   -0.004696  -0.012094   0.000328   0.152828   0.011949  -0.014443
    11  H    0.000081   0.008320  -0.002807  -0.021748   0.058203  -0.010930
    12  H    0.290337   0.001756  -0.010931   0.058203  -0.021755  -0.002807
    13  C    0.013557   0.037122  -0.139258   0.028551   0.621925  -1.272457
    14  C   -0.003070   0.008973  -0.122036   0.235115   0.224744   0.118558
    15  C    0.001735  -0.059944   0.018502  -0.067125   0.119351   0.017682
    16  H    0.000000  -0.000265   0.000007  -0.000062   0.001270   0.000603
    17  C    0.020544   0.082156  -0.048075   0.055568   0.242145  -1.018983
    18  H    0.000002  -0.000833   0.000069  -0.000159  -0.000631  -0.004949
    19  C    0.080219  -0.252185   0.313886   0.070632  -2.289177   0.208767
    20  H    0.002827   0.044445   0.007131  -0.005136   0.026621  -0.054554
    21  C   -0.093373  -0.236269   0.040566   0.311701   0.149670   0.405261
    22  C    0.000229   0.037074   0.003715  -0.004587  -0.128838  -0.041560
    23  H    0.000000  -0.000018   0.000003  -0.000009  -0.000052  -0.001461
    24  S   -0.000023  -0.010061   0.000000   0.009411   0.007523   0.058413
    25  N   -0.001190   0.001139   0.021515  -0.090091   0.000067   0.080180
    26  C    0.054310   0.195070  -1.272413   0.621881   0.028465  -0.139282
    27  C    0.120503   0.024129   0.118480   0.224704   0.235062  -0.122047
    28  C    0.006904  -0.044750   0.017668   0.119394  -0.067130   0.018500
    29  H    0.000016   0.000045   0.000603   0.001270  -0.000062   0.000007
    30  C    0.108926   0.054751  -1.018977   0.242032   0.055531  -0.048082
    31  H    0.000017  -0.000050  -0.004950  -0.000632  -0.000159   0.000069
    32  C   -0.245790  -0.432863   0.208765  -2.288925   0.070905   0.313930
    33  H    0.002285   0.001569  -0.054552   0.026616  -0.005142   0.007130
    34  C   -0.109869  -0.417373   0.405260   0.149612   0.311800   0.040574
    35  C   -0.020396   0.065404  -0.041534  -0.128837  -0.004574   0.003716
    36  H   -0.000067  -0.000041  -0.001461  -0.000052  -0.000009   0.000003
    37  S   -0.014874  -0.056796   0.058416   0.007527   0.009408   0.000000
    38  N    0.039779   0.032949   0.080161   0.000072  -0.090090   0.021515
              7          8          9         10         11         12
     1  N    0.019007   0.001175  -0.073615  -0.004696   0.000081   0.290337
     2  C    0.931353   0.019013   0.190280  -0.012094   0.008320   0.001756
     3  C   -0.077067  -0.010684  -0.014443   0.000328  -0.002807  -0.010931
     4  C   -2.402967  -0.383968   0.011955   0.152828  -0.021748   0.058203
     5  C   -0.868718  -0.131770   0.152825   0.011949   0.058203  -0.021755
     6  C   -1.066305  -0.090674   0.000320  -0.014443  -0.010930  -0.002807
     7  C    9.085382   0.430328  -0.012095   0.190275   0.001750   0.008320
     8  N    0.430328   7.471298  -0.004696  -0.073614   0.290338   0.000081
     9  O   -0.012095  -0.004696   8.438057   0.000030   0.000025  -0.001886
    10  O    0.190275  -0.073614   0.000030   8.438058  -0.001886   0.000025
    11  H    0.001750   0.290338   0.000025  -0.001886   0.353178   0.000000
    12  H    0.008320   0.000081  -0.001886   0.000025   0.000000   0.353179
    13  C    0.195034   0.054312   0.000276  -0.000272   0.032744   0.000471
    14  C    0.024093   0.120508  -0.002437   0.000738   0.027288   0.000001
    15  C   -0.044752   0.006897  -0.009114   0.000137   0.001183  -0.000001
    16  H    0.000045   0.000016   0.000008   0.000000   0.000000   0.000000
    17  C    0.054743   0.108930  -0.098647   0.000947   0.000155   0.000634
    18  H   -0.000050   0.000017   0.000246   0.000000   0.000000   0.000000
    19  C   -0.432774  -0.245812  -0.175753  -0.002769  -0.037787   0.002027
    20  H    0.001569   0.002285  -0.000625   0.000012   0.000005  -0.000004
    21  C   -0.417328  -0.109863   0.125623   0.017038  -0.082180  -0.001889
    22  C    0.065408  -0.020396  -0.000658  -0.000277   0.007651  -0.000002
    23  H   -0.000041  -0.000067   0.000000   0.000000   0.000000   0.000000
    24  S   -0.056799  -0.014875   0.000087  -0.000171  -0.007473   0.000001
    25  N    0.032946   0.039778   0.000547  -0.005954   0.033539  -0.000003
    26  C    0.037146   0.013556  -0.000274   0.000274   0.000471   0.032743
    27  C    0.008976  -0.003070   0.000737  -0.002436   0.000001   0.027290
    28  C   -0.059943   0.001734   0.000137  -0.009113  -0.000001   0.001183
    29  H   -0.000265   0.000000   0.000000   0.000008   0.000000   0.000000
    30  C    0.082163   0.020541   0.000947  -0.098647   0.000634   0.000155
    31  H   -0.000833   0.000002   0.000000   0.000246   0.000000   0.000000
    32  C   -0.252204   0.080217  -0.002766  -0.175741   0.002027  -0.037788
    33  H    0.044448   0.002827   0.000012  -0.000624  -0.000004   0.000005
    34  C   -0.236239  -0.093367   0.017043   0.125614  -0.001889  -0.082180
    35  C    0.037074   0.000229  -0.000277  -0.000658  -0.000002   0.007651
    36  H   -0.000018   0.000000   0.000000   0.000000   0.000000   0.000000
    37  S   -0.010061  -0.000023  -0.000171   0.000087   0.000001  -0.007472
    38  N    0.001139  -0.001190  -0.005955   0.000547  -0.000003   0.033539
             13         14         15         16         17         18
     1  N    0.013557  -0.003070   0.001735   0.000000   0.020544   0.000002
     2  C    0.037122   0.008973  -0.059944  -0.000265   0.082156  -0.000833
     3  C   -0.139258  -0.122036   0.018502   0.000007  -0.048075   0.000069
     4  C    0.028551   0.235115  -0.067125  -0.000062   0.055568  -0.000159
     5  C    0.621925   0.224744   0.119351   0.001270   0.242145  -0.000631
     6  C   -1.272457   0.118558   0.017682   0.000603  -1.018983  -0.004949
     7  C    0.195034   0.024093  -0.044752   0.000045   0.054743  -0.000050
     8  N    0.054312   0.120508   0.006897   0.000016   0.108930   0.000017
     9  O    0.000276  -0.002437  -0.009114   0.000008  -0.098647   0.000246
    10  O   -0.000272   0.000738   0.000137   0.000000   0.000947   0.000000
    11  H    0.032744   0.027288   0.001183   0.000000   0.000155   0.000000
    12  H    0.000471   0.000001  -0.000001   0.000000   0.000634   0.000000
    13  C    9.269122  -2.136863   0.141637   0.031451  -1.003819   0.008055
    14  C   -2.136863  14.881576  -2.863492   0.030204   1.493685   0.015830
    15  C    0.141637  -2.863492   9.977155   0.277245   0.280075   0.013236
    16  H    0.031451   0.030204   0.277245   0.561494  -0.042379  -0.004094
    17  C   -1.003819   1.493685   0.280075  -0.042379  10.983260   0.366629
    18  H    0.008055   0.015830   0.013236  -0.004094   0.366629   0.548922
    19  C    1.265688  -2.704621  -1.437345   0.062994  -5.137780  -0.087187
    20  H    0.044739   0.010314  -0.000867  -0.000153   0.112221  -0.004752
    21  C   -0.389706  -2.173643   1.099489   0.022717  -0.221584   0.012622
    22  C   -0.156778  -2.588577  -0.801734  -0.078644   0.153382  -0.006053
    23  H    0.055530   0.096311  -0.028993   0.001430  -0.003721  -0.000003
    24  S   -0.008617   0.138211  -0.010648  -0.001232  -0.029506   0.000517
    25  N    0.115563   0.408262  -0.054312  -0.001245  -0.017715   0.000345
    26  C    0.039262   0.006514  -0.000598   0.000000   0.013551   0.000000
    27  C    0.006514   0.000973  -0.000132   0.000000   0.001918   0.000000
    28  C   -0.000597  -0.000132  -0.000008   0.000000  -0.000077   0.000000
    29  H    0.000000   0.000000   0.000000   0.000000   0.000000   0.000000
    30  C    0.013549   0.001918  -0.000077   0.000000   0.001276   0.000000
    31  H    0.000000   0.000000   0.000000   0.000000   0.000000   0.000000
    32  C   -0.066208  -0.005654   0.000277   0.000000  -0.009240   0.000002
    33  H    0.000592   0.000036   0.000003   0.000000  -0.000017   0.000000
    34  C   -0.045483  -0.002227   0.000953   0.000000  -0.024406   0.000001
    35  C   -0.000608  -0.000034   0.000010   0.000000  -0.000050   0.000000
    36  H    0.000000   0.000000   0.000000   0.000000   0.000000   0.000000
    37  S    0.000218   0.000016  -0.000002   0.000000   0.000146   0.000000
    38  N   -0.001010  -0.000213   0.000039   0.000000   0.000312   0.000000
             19         20         21         22         23         24
     1  N    0.080219   0.002827  -0.093373   0.000229   0.000000  -0.000023
     2  C   -0.252185   0.044445  -0.236269   0.037074  -0.000018  -0.010061
     3  C    0.313886   0.007131   0.040566   0.003715   0.000003   0.000000
     4  C    0.070632  -0.005136   0.311701  -0.004587  -0.000009   0.009411
     5  C   -2.289177   0.026621   0.149670  -0.128838  -0.000052   0.007523
     6  C    0.208767  -0.054554   0.405261  -0.041560  -0.001461   0.058413
     7  C   -0.432774   0.001569  -0.417328   0.065408  -0.000041  -0.056799
     8  N   -0.245812   0.002285  -0.109863  -0.020396  -0.000067  -0.014875
     9  O   -0.175753  -0.000625   0.125623  -0.000658   0.000000   0.000087
    10  O   -0.002769   0.000012   0.017038  -0.000277   0.000000  -0.000171
    11  H   -0.037787   0.000005  -0.082180   0.007651   0.000000  -0.007473
    12  H    0.002027  -0.000004  -0.001889  -0.000002   0.000000   0.000001
    13  C    1.265688   0.044739  -0.389706  -0.156778   0.055530  -0.008617
    14  C   -2.704621   0.010314  -2.173643  -2.588577   0.096311   0.138211
    15  C   -1.437345  -0.000867   1.099489  -0.801734  -0.028993  -0.010648
    16  H    0.062994  -0.000153   0.022717  -0.078644   0.001430  -0.001232
    17  C   -5.137780   0.112221  -0.221584   0.153382  -0.003721  -0.029506
    18  H   -0.087187  -0.004752   0.012622  -0.006053  -0.000003   0.000517
    19  C   19.440422   0.158271  -3.061445   0.854794  -0.000098  -0.016214
    20  H    0.158271   0.510695  -0.036517   0.000876   0.000000   0.000234
    21  C   -3.061445  -0.036517  11.105566  -0.682673   0.001446   0.054236
    22  C    0.854794   0.000876  -0.682673  10.516703   0.156170  -0.704072
    23  H   -0.000098   0.000000   0.001446   0.156170   0.506577   0.027431
    24  S   -0.016214   0.000234   0.054236  -0.704072   0.027431  15.903350
    25  N   -0.047667  -0.002063  -0.207110  -0.545817   0.010977   0.003487
    26  C   -0.066211   0.000592  -0.045486  -0.000607   0.000000   0.000218
    27  C   -0.005655   0.000036  -0.002228  -0.000034   0.000000   0.000016
    28  C    0.000277   0.000003   0.000952   0.000010   0.000000  -0.000002
    29  H    0.000000   0.000000   0.000000   0.000000   0.000000   0.000000
    30  C   -0.009239  -0.000017  -0.024403  -0.000050   0.000000   0.000146
    31  H    0.000002   0.000000   0.000001   0.000000   0.000000   0.000000
    32  C    0.072364  -0.001057   0.177300   0.001172   0.000000   0.000184
    33  H   -0.001057   0.000000  -0.003915  -0.000007   0.000000   0.000007
    34  C    0.177297  -0.003915   0.036350   0.001170   0.000000  -0.000235
    35  C    0.001172  -0.000007   0.001170   0.000001   0.000000   0.000000
    36  H    0.000000   0.000000   0.000000   0.000000   0.000000   0.000000
    37  S    0.000184   0.000007  -0.000235   0.000000   0.000000   0.000000
    38  N    0.006532   0.000023  -0.004518   0.000010   0.000000  -0.000003
             25         26         27         28         29         30
     1  N   -0.001190   0.054310   0.120503   0.006904   0.000016   0.108926
     2  C    0.001139   0.195070   0.024129  -0.044750   0.000045   0.054751
     3  C    0.021515  -1.272413   0.118480   0.017668   0.000603  -1.018977
     4  C   -0.090091   0.621881   0.224704   0.119394   0.001270   0.242032
     5  C    0.000067   0.028465   0.235062  -0.067130  -0.000062   0.055531
     6  C    0.080180  -0.139282  -0.122047   0.018500   0.000007  -0.048082
     7  C    0.032946   0.037146   0.008976  -0.059943  -0.000265   0.082163
     8  N    0.039778   0.013556  -0.003070   0.001734   0.000000   0.020541
     9  O    0.000547  -0.000274   0.000737   0.000137   0.000000   0.000947
    10  O   -0.005954   0.000274  -0.002436  -0.009113   0.000008  -0.098647
    11  H    0.033539   0.000471   0.000001  -0.000001   0.000000   0.000634
    12  H   -0.000003   0.032743   0.027290   0.001183   0.000000   0.000155
    13  C    0.115563   0.039262   0.006514  -0.000597   0.000000   0.013549
    14  C    0.408262   0.006514   0.000973  -0.000132   0.000000   0.001918
    15  C   -0.054312  -0.000598  -0.000132  -0.000008   0.000000  -0.000077
    16  H   -0.001245   0.000000   0.000000   0.000000   0.000000   0.000000
    17  C   -0.017715   0.013551   0.001918  -0.000077   0.000000   0.001276
    18  H    0.000345   0.000000   0.000000   0.000000   0.000000   0.000000
    19  C   -0.047667  -0.066211  -0.005655   0.000277   0.000000  -0.009239
    20  H   -0.002063   0.000592   0.000036   0.000003   0.000000  -0.000017
    21  C   -0.207110  -0.045486  -0.002228   0.000952   0.000000  -0.024403
    22  C   -0.545817  -0.000607  -0.000034   0.000010   0.000000  -0.000050
    23  H    0.010977   0.000000   0.000000   0.000000   0.000000   0.000000
    24  S    0.003487   0.000218   0.000016  -0.000002   0.000000   0.000146
    25  N    7.578654  -0.001010  -0.000213   0.000039   0.000000   0.000312
    26  C   -0.001010   9.269380  -2.137059   0.141470   0.031452  -1.003837
    27  C   -0.000213  -2.137059  14.881633  -2.863275   0.030204   1.493552
    28  C    0.000039   0.141470  -2.863275   9.977096   0.277251   0.280234
    29  H    0.000000   0.031452   0.030204   0.277251   0.561494  -0.042383
    30  C    0.000312  -1.003837   1.493552   0.280234  -0.042383  10.982846
    31  H    0.000000   0.008055   0.015831   0.013236  -0.004094   0.366635
    32  C    0.006532   1.265773  -2.704369  -1.437611   0.062990  -5.137063
    33  H    0.000023   0.044739   0.010311  -0.000864  -0.000153   0.112203
    34  C   -0.004518  -0.389577  -2.173761   1.099598   0.022717  -0.221822
    35  C    0.000010  -0.156757  -2.588571  -0.801786  -0.078644   0.153462
    36  H    0.000000   0.055529   0.096317  -0.028995   0.001430  -0.003721
    37  S   -0.000003  -0.008629   0.138243  -0.010646  -0.001232  -0.029503
    38  N    0.000013   0.115543   0.408285  -0.054314  -0.001245  -0.017710
             31         32         33         34         35         36
     1  N    0.000017  -0.245790   0.002285  -0.109869  -0.020396  -0.000067
     2  C   -0.000050  -0.432863   0.001569  -0.417373   0.065404  -0.000041
     3  C   -0.004950   0.208765  -0.054552   0.405260  -0.041534  -0.001461
     4  C   -0.000632  -2.288925   0.026616   0.149612  -0.128837  -0.000052
     5  C   -0.000159   0.070905  -0.005142   0.311800  -0.004574  -0.000009
     6  C    0.000069   0.313930   0.007130   0.040574   0.003716   0.000003
     7  C   -0.000833  -0.252204   0.044448  -0.236239   0.037074  -0.000018
     8  N    0.000002   0.080217   0.002827  -0.093367   0.000229   0.000000
     9  O    0.000000  -0.002766   0.000012   0.017043  -0.000277   0.000000
    10  O    0.000246  -0.175741  -0.000624   0.125614  -0.000658   0.000000
    11  H    0.000000   0.002027  -0.000004  -0.001889  -0.000002   0.000000
    12  H    0.000000  -0.037788   0.000005  -0.082180   0.007651   0.000000
    13  C    0.000000  -0.066208   0.000592  -0.045483  -0.000608   0.000000
    14  C    0.000000  -0.005654   0.000036  -0.002227  -0.000034   0.000000
    15  C    0.000000   0.000277   0.000003   0.000953   0.000010   0.000000
    16  H    0.000000   0.000000   0.000000   0.000000   0.000000   0.000000
    17  C    0.000000  -0.009240  -0.000017  -0.024406  -0.000050   0.000000
    18  H    0.000000   0.000002   0.000000   0.000001   0.000000   0.000000
    19  C    0.000002   0.072364  -0.001057   0.177297   0.001172   0.000000
    20  H    0.000000  -0.001057   0.000000  -0.003915  -0.000007   0.000000
    21  C    0.000001   0.177300  -0.003915   0.036350   0.001170   0.000000
    22  C    0.000000   0.001172  -0.000007   0.001170   0.000001   0.000000
    23  H    0.000000   0.000000   0.000000   0.000000   0.000000   0.000000
    24  S    0.000000   0.000184   0.000007  -0.000235   0.000000   0.000000
    25  N    0.000000   0.006532   0.000023  -0.004518   0.000010   0.000000
    26  C    0.008055   1.265773   0.044739  -0.389577  -0.156757   0.055529
    27  C    0.015831  -2.704369   0.010311  -2.173761  -2.588571   0.096317
    28  C    0.013236  -1.437611  -0.000864   1.099598  -0.801786  -0.028995
    29  H   -0.004094   0.062990  -0.000153   0.022717  -0.078644   0.001430
    30  C    0.366635  -5.137063   0.112203  -0.221822   0.153462  -0.003721
    31  H    0.548920  -0.087192  -0.004752   0.012621  -0.006053  -0.000003
    32  C   -0.087192  19.438580   0.158303  -3.060824   0.854676  -0.000098
    33  H   -0.004752   0.158303   0.510696  -0.036525   0.000876   0.000000
    34  C    0.012621  -3.060824  -0.036525  11.105108  -0.682688   0.001447
    35  C   -0.006053   0.854676   0.000876  -0.682688  10.516714   0.156166
    36  H   -0.000003  -0.000098   0.000000   0.001447   0.156166   0.506576
    37  S    0.000517  -0.016224   0.000234   0.054240  -0.704089   0.027432
    38  N    0.000345  -0.047673  -0.002063  -0.207117  -0.545802   0.010977
             37         38
     1  N   -0.014874   0.039779
     2  C   -0.056796   0.032949
     3  C    0.058416   0.080161
     4  C    0.007527   0.000072
     5  C    0.009408  -0.090090
     6  C    0.000000   0.021515
     7  C   -0.010061   0.001139
     8  N   -0.000023  -0.001190
     9  O   -0.000171  -0.005955
    10  O    0.000087   0.000547
    11  H    0.000001  -0.000003
    12  H   -0.007472   0.033539
    13  C    0.000218  -0.001010
    14  C    0.000016  -0.000213
    15  C   -0.000002   0.000039
    16  H    0.000000   0.000000
    17  C    0.000146   0.000312
    18  H    0.000000   0.000000
    19  C    0.000184   0.006532
    20  H    0.000007   0.000023
    21  C   -0.000235  -0.004518
    22  C    0.000000   0.000010
    23  H    0.000000   0.000000
    24  S    0.000000  -0.000003
    25  N   -0.000003   0.000013
    26  C   -0.008629   0.115543
    27  C    0.138243   0.408285
    28  C   -0.010646  -0.054314
    29  H   -0.001232  -0.001245
    30  C   -0.029503  -0.017710
    31  H    0.000517   0.000345
    32  C   -0.016224  -0.047673
    33  H    0.000234  -0.002063
    34  C    0.054240  -0.207117
    35  C   -0.704089  -0.545802
    36  H    0.027432   0.010977
    37  S   15.903347   0.003487
    38  N    0.003487   7.578654
 Mulliken atomic charges:
              1
     1  N   -0.480009
     2  C    0.687284
     3  C    0.613599
     4  C   -0.184869
     5  C   -0.184934
     6  C    0.613598
     7  C    0.687260
     8  N   -0.480014
     9  O   -0.535743
    10  O   -0.535744
    11  H    0.349117
    12  H    0.349117
    13  C   -0.754236
    14  C    0.759133
    15  C   -0.576461
    16  H    0.138593
    17  C   -0.316281
    18  H    0.142218
    19  C   -0.704752
    20  H    0.186759
    21  C    0.232657
    22  C   -0.037002
    23  H    0.178587
    24  S    0.656455
    25  N   -0.355016
    26  C   -0.754253
    27  C    0.759134
    28  C   -0.576441
    29  H    0.138592
    30  C   -0.316283
    31  H    0.142219
    32  C   -0.704710
    33  H    0.186759
    34  C    0.232611
    35  C   -0.036965
    36  H    0.178588
    37  S    0.656448
    38  N   -0.355017
 Sum of Mulliken atomic charges =   0.00000
 Mulliken charges with hydrogens summed into heavy atoms:
              1
     1  N   -0.130892
     2  C    0.687284
     3  C    0.613599
     4  C   -0.184869
     5  C   -0.184934
     6  C    0.613598
     7  C    0.687260
     8  N   -0.130897
     9  O   -0.535743
    10  O   -0.535744
    13  C   -0.754236
    14  C    0.759133
    15  C   -0.437869
    17  C   -0.174063
    19  C   -0.517993
    21  C    0.232657
    22  C    0.141585
    24  S    0.656455
    25  N   -0.355016
    26  C   -0.754253
    27  C    0.759134
    28  C   -0.437848
    30  C   -0.174064
    32  C   -0.517951
    34  C    0.232611
    35  C    0.141623
    37  S    0.656448
    38  N   -0.355017
 Sum of Mulliken charges with hydrogens summed into heavy atoms =   0.00000
 Electronic spatial extent (au):  <R**2>=          15840.1177
 Charge=              0.0000 electrons
 Dipole moment (field-independent basis, Debye):
    X=             -0.0001    Y=              0.0000    Z=              0.0000  Tot=              0.0001
 Quadrupole moment (field-independent basis, Debye-Ang):
   XX=           -179.9106   YY=            -91.2296   ZZ=           -179.3588
   XY=             -4.7793   XZ=             -4.1598   YZ=             19.9686
 Traceless Quadrupole moment (field-independent basis, Debye-Ang):
   XX=            -29.7443   YY=             58.9367   ZZ=            -29.1925
   XY=             -4.7793   XZ=             -4.1598   YZ=             19.9686
 Octapole moment (field-independent basis, Debye-Ang**2):
  XXX=             71.7454  YYY=            -19.2219  ZZZ=            137.7500  XYY=             11.4655
  XXY=            -11.3587  XXZ=             47.1642  XZZ=             25.9749  YZZ=            -22.8305
  YYZ=             26.1586  XYZ=             -1.7158
 Hexadecapole moment (field-independent basis, Debye-Ang**3):
 XXXX=          -1033.4347 YYYY=         -12936.7018 ZZZZ=          -3762.8713 XXXY=            380.9853
 XXXZ=           -607.9115 YYYX=             -4.9010 YYYZ=          -1176.4998 ZZZX=           -612.6915
 ZZZY=          -1975.5089 XXYY=          -3085.2854 XXZZ=           -821.7348 YYZZ=          -3068.6342
 XXYZ=           -763.6250 YYXZ=            -26.5458 ZZXY=            168.9072
 N-N= 2.617283783278D+03 E-N=-9.769360520445D+03  KE= 1.920764164722D+03
 Calling FoFJK, ICntrl=      2127 FMM=F ISym2X=0 I1Cent= 0 IOpClX= 0 NMat=1 NMatS=1 NMatT=0.
 -------------------------------------------------------------------
 Center     Atomic                   Forces (Hartrees/Bohr)
 Number     Number              X              Y              Z
 -------------------------------------------------------------------
      1        7           0.000007356    0.000007725   -0.000010445
      2        6          -0.000005072   -0.000003188   -0.000002362
      3        6          -0.000027437    0.000000963    0.000026018
      4        6          -0.000000357   -0.000010569   -0.000005091
      5        6          -0.000002965    0.000012379    0.000001449
      6        6           0.000025885    0.000000476   -0.000021300
      7        6           0.000009395   -0.000002280    0.000003380
      8        7          -0.000011789   -0.000002408    0.000004404
      9        8          -0.000005699   -0.000003150    0.000007162
     10        8           0.000004825    0.000004723   -0.000006711
     11        1           0.000006960    0.000002734   -0.000002762
     12        1          -0.000005618   -0.000003044    0.000002634
     13        6           0.000016835    0.000004504   -0.000005761
     14        6          -0.000000293    0.000001491   -0.000000814
     15        6          -0.000004424   -0.000001511   -0.000004128
     16        1          -0.000004362   -0.000000687    0.000001066
     17        6          -0.000004138    0.000001614    0.000002363
     18        1          -0.000008455   -0.000002416    0.000002884
     19        6          -0.000004241   -0.000003458    0.000002121
     20        1          -0.000005163   -0.000000992    0.000002317
     21        6          -0.000027906   -0.000004397    0.000014046
     22        6           0.000004360   -0.000001896   -0.000001707
     23        1           0.000002309    0.000001808   -0.000004343
     24       16           0.000007056    0.000004900   -0.000004265
     25        7           0.000003777    0.000001040   -0.000006784
     26        6          -0.000015864    0.000002149    0.000011576
     27        6           0.000002092   -0.000005892    0.000002844
     28        6           0.000001774    0.000000918   -0.000003376
     29        1           0.000004980    0.000000589    0.000001276
     30        6           0.000004919    0.000004402   -0.000000917
     31        1           0.000008062    0.000001536   -0.000002654
     32        6           0.000006836   -0.000002220    0.000000081
     33        1           0.000008148    0.000000494   -0.000001307
     34        6           0.000026643   -0.000001534   -0.000017177
     35        6          -0.000004715    0.000003535    0.000001252
     36        1          -0.000001930   -0.000001932    0.000005504
     37       16          -0.000007109   -0.000000995    0.000005729
     38        7          -0.000004675   -0.000005413    0.000003800
 -------------------------------------------------------------------
 Cartesian Forces:  Max     0.000027906 RMS     0.000008065

 GradGradGradGradGradGradGradGradGradGradGradGradGradGradGradGradGradGrad
 Berny optimization.
 Internal  Forces:  Max     0.000017797 RMS     0.000002801
 Search for a local minimum.
 Step number   1 out of a maximum of  228
 All quantities printed in internal units (Hartrees-Bohrs-Radians)
 Mixed Optimization -- En-DIIS/RFO-DIIS
 Second derivative matrix not updated -- first step.
 ITU=  0
     Eigenvalues ---    0.01396   0.01400   0.01417   0.01417   0.01503
     Eigenvalues ---    0.01638   0.01638   0.01655   0.01667   0.01667
     Eigenvalues ---    0.01689   0.01690   0.01703   0.01703   0.01718
     Eigenvalues ---    0.01764   0.01784   0.01801   0.01801   0.01890
     Eigenvalues ---    0.01890   0.01908   0.01976   0.01976   0.02033
     Eigenvalues ---    0.02046   0.02046   0.02071   0.02071   0.02082
     Eigenvalues ---    0.02082   0.02114   0.02114   0.02222   0.02222
     Eigenvalues ---    0.04640   0.04645   0.16000   0.16000   0.16000
     Eigenvalues ---    0.16000   0.16000   0.16000   0.16000   0.16000
     Eigenvalues ---    0.16484   0.16488   0.22107   0.22107   0.23394
     Eigenvalues ---    0.23394   0.23719   0.23792   0.23827   0.23828
     Eigenvalues ---    0.24913   0.24913   0.25000   0.25000   0.25000
     Eigenvalues ---    0.25000   0.25000   0.25000   0.25000   0.25000
     Eigenvalues ---    0.33783   0.33791   0.34734   0.35118   0.35119
     Eigenvalues ---    0.35304   0.35337   0.35337   0.35343   0.35343
     Eigenvalues ---    0.35542   0.35613   0.35742   0.35742   0.36453
     Eigenvalues ---    0.36822   0.36823   0.37917   0.37918   0.39672
     Eigenvalues ---    0.39673   0.40255   0.40256   0.41178   0.41518
     Eigenvalues ---    0.41519   0.42444   0.44599   0.44845   0.45051
     Eigenvalues ---    0.45242   0.45740   0.45740   0.46120   0.46122
     Eigenvalues ---    0.46454   0.46720   0.49001   0.49002   0.55248
     Eigenvalues ---    0.55248   0.90734   0.90735
 RFO step:  Lambda=-8.63322259D-08 EMin= 1.39646995D-02
 Linear search not attempted -- first point.
 Iteration  1 RMS(Cart)=  0.00053923 RMS(Int)=  0.00000017
 Iteration  2 RMS(Cart)=  0.00000029 RMS(Int)=  0.00000004
 Variable       Old X    -DE/DX   Delta X   Delta X   Delta X     New X
                                 (Linear)    (Quad)   (Total)
    R1        2.67158   0.00000   0.00000   0.00000   0.00000   2.67158
    R2        2.61857   0.00001   0.00000   0.00002   0.00002   2.61858
    R3        1.91805   0.00000   0.00000   0.00000   0.00000   1.91805
    R4        2.75552   0.00000   0.00000   0.00000   0.00000   2.75552
    R5        2.32596   0.00000   0.00000   0.00000   0.00000   2.32596
    R6        2.63290  -0.00001   0.00000  -0.00001  -0.00001   2.63289
    R7        2.74158   0.00001   0.00000   0.00002   0.00002   2.74160
    R8        2.69726   0.00001   0.00000   0.00002   0.00002   2.69728
    R9        2.75552   0.00000   0.00000   0.00001   0.00001   2.75552
   R10        2.63290   0.00000   0.00000  -0.00001  -0.00001   2.63289
   R11        2.61859   0.00000   0.00000   0.00000   0.00000   2.61859
   R12        2.74159   0.00000   0.00000   0.00000   0.00000   2.74160
   R13        2.67157   0.00000   0.00000   0.00000   0.00000   2.67158
   R14        2.32597   0.00000   0.00000  -0.00001  -0.00001   2.32596
   R15        1.91805   0.00000   0.00000   0.00000   0.00000   1.91805
   R16        3.91321   0.00000   0.00000   0.00001   0.00001   3.91322
   R17        3.91322   0.00000   0.00000   0.00000   0.00000   3.91322
   R18        2.74142   0.00000   0.00000   0.00000   0.00000   2.74142
   R19        2.73530   0.00000   0.00000   0.00001   0.00001   2.73531
   R20        2.53101   0.00000   0.00000   0.00000   0.00000   2.53101
[...]
 0000245,-0.00104884,-0.00124802,0.00073528,-0.00001789,-0.00001576,-0.
 00006603,0.00001378,-0.00000151,-0.00001089,0.00007992,0.00000230,0.00
 009974,-0.00019386,-0.00007757,0.00001652,-0.07901833,-0.01299024,-0.0
 3004101,0.01208036,-0.00102785,0.01459278,-0.00780912,-0.00815741,-0.0
 1584979,-0.00073667,-0.00023669,-0.00000051,-0.00221851,0.03416182,-0.
 00357901,0.00361089,0.00147555,-0.00137000,-0.13589513,0.02675044,-0.1
 2273316,0.00084558,0.00356884,-0.00682029,0.28675106,0.01091196,-0.016
 50362,0.01290103,0.00155657,0.00865086,0.00476787,0.03917450,-0.228869
 85,0.01457996,0.00691603,-0.04247478,-0.00316347,-0.00491230,0.0114830
 5,-0.00675631,-0.00178637,-0.00722046,-0.00598593,0.00113851,-0.000569
 08,0.00304266,0.00179679,-0.00184536,0.00230232,-0.00123831,0.00005013
 ,-0.00231382,0.00009486,0.00062379,-0.00003803,-0.00000451,-0.00017948
 ,-0.00007600,-0.00029898,-0.00023210,-0.00034656,-0.00023149,-0.000414
 86,-0.00064560,-0.00004473,0.00007932,-0.00001930,-0.00012725,-0.00030
 006,-0.00034049,-0.00000811,0.00001222,0.00000110,0.00000635,0.0009060
 1,0.00025332,-0.00001072,0.00003249,-0.00001144,0.00075893,-0.00086009
 ,0.00105151,0.00002767,0.00005910,0.00011485,-0.00124811,0.00256272,-0
 .00082354,0.00000959,0.00006211,0.00003255,-0.00000020,-0.00000038,-0.
 00000720,-0.00007485,-0.00012007,-0.00018009,0.00021856,0.00008954,0.0
 0048884,-0.01218576,-0.19481133,-0.06403514,-0.00112416,-0.02512192,-0
 .01136458,-0.00141709,0.00314445,-0.00138807,-0.00016965,0.00030717,0.
 00005189,0.01923941,-0.01763950,0.02648108,0.00172118,-0.00518654,-0.0
 0013946,0.03886934,-0.12712471,0.04759619,-0.01070589,0.01290043,-0.01
 658947,-0.08026862,0.61572017,-0.00968635,0.03621188,-0.00204447,-0.00
 356140,-0.00643685,-0.00589301,-0.02056254,-0.00654942,-0.09941723,0.0
 0726533,-0.00965233,0.01471820,-0.00193978,-0.00493325,0.00034713,0.00
 008587,0.00081600,0.00174274,0.00020892,0.00116222,-0.00293513,-0.0005
 0794,-0.00094340,-0.00035638,-0.00066881,0.00310318,0.00022006,0.00042
 368,-0.00205518,0.00132202,-0.00002646,-0.00004576,-0.00003473,0.00065
 169,0.00014321,0.00034872,-0.00009907,-0.00000015,0.00012178,0.0000100
 2,0.00006428,-0.00006926,-0.00007201,0.00024427,0.00000550,0.00002216,
 0.00001169,0.00000810,0.00003456,-0.00025809,0.00013583,-0.00001261,-0
 .00000175,-0.00001471,-0.00023521,0.00033636,-0.00025424,0.00003511,-0
 .00008612,-0.00010429,0.00073552,-0.00082359,-0.00065474,-0.00005738,-
 0.00001284,-0.00009014,-0.00001053,-0.00000914,-0.00000207,0.00007387,
 -0.00004266,0.00014191,0.00011399,-0.00003784,-0.00002781,-0.02977932,
 -0.06560492,-0.13878437,0.01457028,-0.01117227,0.02589799,-0.01369686,
 -0.01330040,-0.02896436,0.00002281,-0.00006814,-0.00076486,-0.00837163
 ,0.05299001,0.00836512,-0.00128410,-0.00057776,0.00217237,-0.11885552,
 0.02610860,-0.26427695,-0.01139614,0.00878472,-0.01213712,0.22358353,0
 .01084319,0.54664409,0.00006862,0.00027067,0.00008302,0.00012485,-0.00
 031422,0.00023351,0.00020535,0.00037774,0.00025353,-0.00004464,-0.0000
 5995,0.00007550,-0.00002801,0.00037465,0.00009091,-0.00007139,-0.00013
 581,-0.00019864,0.00000038,-0.00023256,-0.00005173,0.00004710,0.000039
 30,0.00006973,-0.00012495,0.00014834,-0.00023044,0.00005357,0.00018248
 ,0.00013437,-0.00000964,-0.00005505,-0.00003042,-0.00000863,-0.0004057
 7,-0.00006202,-0.00003114,0.,-0.00003912,-0.00001356,0.00003434,0.0000
 0378,-0.00001696,0.00004204,-0.00003013,0.00000078,0.00000595,0.000004
 53,0.00001870,0.00000527,0.00004822,-0.00000751,0.00000719,-0.00000676
 ,0.00001898,0.00001207,0.00001770,0.00001052,-0.00000797,0.00001229,-0
 .00001799,0.00000963,-0.00005769,-0.00001604,0.00002258,-0.00002341,-0
 .00000219,-0.00000123,-0.00000219,0.00001159,-0.00003195,0.00001222,0.
 00002289,0.00002206,0.00003836,0.01494389,-0.01366327,0.01196214,-0.08
 818576,-0.03208795,-0.06798117,-0.00867610,-0.01371612,-0.02506080,-0.
 00109667,-0.00074131,0.00182104,0.00210916,0.01191152,0.00047098,0.000
 22537,-0.00031833,-0.00052767,0.00247392,-0.00605645,0.00344094,-0.000
 00065,-0.00015349,0.00005598,-0.00136817,-0.00018519,-0.00543368,0.186
 85643,-0.00017237,-0.00210719,-0.00101778,-0.00050747,0.00161515,-0.00
 035142,0.00024592,-0.00085097,0.00011695,-0.00005231,-0.00106868,-0.00
 041140,-0.00027190,-0.00033882,-0.00059271,0.00000676,0.00004103,0.000
 01969,0.00048123,-0.00020764,0.00079321,-0.00012233,-0.00009903,-0.000
 25517,0.00023110,-0.00044098,0.00025595,-0.00028989,0.00038875,-0.0003
 9186,0.00001154,0.00004357,0.00003573,-0.00045726,0.00281952,0.0001174
 3,0.00001556,-0.00001087,0.00002681,-0.00000348,-0.00003788,-0.0000149
 0,0.00002467,-0.00004403,0.00002687,-0.00000144,-0.00000724,-0.0000047
 3,-0.00002787,0.00000066,-0.00004648,0.00000427,-0.00000358,0.00000725
 ,0.00001477,-0.00001053,0.00001846,-0.00000360,0.00005379,0.00001074,-
 0.00001563,0.00006195,-0.00001277,0.00002270,-0.00002155,0.00003267,0.
 00000105,0.00000045,0.00000252,-0.00001839,0.00001583,-0.00002703,-0.0
 0001288,-0.00001507,-0.00002979,0.00595526,-0.03943381,-0.00409501,-0.
 04127967,-0.19055685,-0.11716302,-0.00498785,0.01016464,-0.00651301,-0
 .00043618,0.00061184,0.00015528,0.00249394,0.00887360,0.00600470,0.000
 24402,0.00075511,0.00052464,0.00310870,-0.00543358,0.00394330,-0.00003
 294,-0.00012827,-0.00008059,0.00075949,-0.00612849,-0.00117933,-0.0487
 8221,0.72846451,-0.00006125,-0.00022815,-0.00011185,0.00017150,-0.0000
 1283,0.00023794,0.00021056,0.00035335,0.00062134,0.00007777,-0.0004216
 2,-0.00009700,-0.00012104,0.00056071,-0.00004118,-0.00015261,-0.000233
 07,-0.00033330,0.00018090,-0.00047569,0.00015228,0.00001769,0.00003161
 ,0.00005624,-0.00020374,0.00010986,-0.00029480,-0.00001993,0.00044575,
 0.00012383,-0.00000868,-0.00008291,-0.00004542,-0.00007832,0.00021031,
 -0.00012039,-0.00003446,-0.00000043,-0.00007047,-0.00000858,0.00005116
 ,-0.00000796,-0.00003559,0.00005794,-0.00003657,0.00000195,0.00000843,
 0.00000592,0.00003770,0.00001174,0.00006292,-0.00000782,0.00001239,-0.
 00001211,0.00001767,0.00001428,0.00004867,0.00001383,0.00000293,0.0000
 2778,-0.00006564,0.00003213,-0.00009007,-0.00002293,0.00003291,-0.0000
 2938,-0.00000147,-0.00000164,-0.00000419,0.00001632,-0.00005170,0.0000
 1118,0.00002735,0.00003308,0.00006428,0.01835748,-0.03894665,0.0256534
 2,-0.07097047,-0.10086263,-0.21468435,-0.02221627,-0.02201664,-0.04370
 076,0.00192248,-0.00038323,0.00103617,-0.00258807,0.02274597,0.0068056
 6,-0.00034572,-0.00047128,-0.00030319,0.00641689,-0.01234677,0.0068212
 8,0.00009609,-0.00029445,0.00001361,-0.00512420,-0.00285756,-0.0083808
 0,0.15577300,0.12056502,0.40633296,-0.00011161,0.00021765,0.00012759,0
 .00005365,-0.00012282,0.00003375,0.00011297,0.00000999,-0.00048026,0.0
 0000498,-0.00001361,0.00009193,-0.00004233,0.00001992,0.00005535,-0.00
 001216,-0.00002245,0.00000815,0.00003314,0.00001538,-0.00002959,0.0000
 1274,0.00000582,0.00001574,-0.00002483,0.00002570,-0.00000058,-0.00002
 107,-0.00000635,0.00002113,0.00000485,-0.00000393,-0.00000425,0.000276
 76,-0.00022668,-0.00015017,-0.00000040,-0.00000088,-0.00000147,0.,0.00
 000277,0.00000083,-0.00000207,0.00000190,-0.00000124,0.00000084,0.0000
 0069,-0.00000013,0.00000206,0.00000057,0.00000297,0.00000100,0.0000002
 1,-0.00000117,-0.00000746,-0.00000110,0.00000301,0.00000268,-0.0000042
 5,-0.00000306,0.00001385,-0.00000031,-0.00001047,-0.00000216,0.0000011
 0,-0.00000141,0.00000040,0.00000002,-0.00000048,0.00000222,-0.00000140
 ,0.00000081,-0.00000012,0.00000128,0.00000238,0.00219087,-0.00053711,-
 0.00440115,0.00458864,-0.01049896,0.00118482,-0.00207962,-0.00031243,0
 .00190224,0.00009295,0.00028595,-0.00024812,-0.00009413,0.00018142,0.0
 0005849,0.00020966,0.00003600,-0.00012383,-0.00028075,-0.00008285,0.00
 028324,0.00000480,0.00001131,-0.00001540,0.00063817,-0.00042731,0.0001
 5459,-0.03506798,0.03848143,-0.00690965,0.02983059,-0.00003629,-0.0001
 2692,-0.00005944,-0.00001279,0.00010154,0.00000674,0.00004623,-0.00003
 884,-0.00005504,0.00003285,-0.00005910,0.00005467,-0.00003610,-0.00001
 825,-0.00004752,-0.00000776,-0.00000285,-0.00000800,-0.00000872,0.0000
 0116,-0.00003201,-0.00000387,-0.00001562,-0.00001356,-0.00000231,-0.00
 002299,-0.00000524,0.00000786,-0.00001970,0.00001856,0.00000067,-0.000
 00120,-0.00000133,0.00001907,0.00012763,-0.00002909,-0.00000161,-0.000
 00069,-0.00000303,-0.00000092,0.00000234,-0.00000110,-0.00000214,0.000
 00292,-0.00000231,0.00000020,0.00000017,0.00000006,0.00000175,0.000000
 70,0.00000300,-0.00000005,0.00000051,-0.00000048,-0.00000021,0.0000009
 3,0.00000318,0.00000119,0.00000353,0.00000208,-0.00000156,-0.00000033,
 -0.00000926,-0.00000123,0.00000042,-0.00000166,0.,-0.00000013,-0.00000
 024,0.00000130,-0.00000216,0.00000108,0.00000160,0.00000026,0.00000320
 ,0.00038834,-0.00096217,-0.00110174,0.00301047,-0.00536730,0.00294837,
 -0.00014198,0.00053160,0.00096026,-0.00017810,0.00006058,-0.00038966,-
 0.00003412,-0.00023667,-0.00010724,0.00002979,0.00000079,-0.00003954,-
 0.00007920,0.00004251,0.00002108,-0.00000554,0.00002529,-0.00000686,0.
 00030697,-0.00043131,0.00025270,0.03688142,-0.35108840,-0.04064649,-0.
 03968817,0.36316304,0.00004539,0.00039379,0.00006563,0.00007012,-0.000
 19019,0.00007408,-0.00046858,-0.00011999,-0.00048676,0.00010702,-0.000
 02678,0.00013199,0.00003729,0.00005245,0.00001384,0.00001292,-0.000034
 05,-0.00000892,-0.00003774,0.00001003,-0.00001091,0.00001257,0.0000039
 9,0.00002876,-0.00001003,0.00004518,-0.00002281,0.00002588,-0.00000622
 ,0.00000979,-0.00000277,-0.00000959,-0.00000157,-0.00007004,-0.0004662
 5,0.00004427,-0.00000186,-0.00000176,-0.00000343,-0.00000024,0.0000057
 3,0.00000128,-0.00000261,0.00000470,-0.00000412,-0.00000030,0.00000097
 ,0.00000084,0.00000346,0.00000100,0.00000692,-0.00000128,0.,-0.0000006
 0,0.00000343,0.00000139,-0.00000273,-0.00000127,-0.00000764,-0.0000011
 8,-0.00001093,-0.00000717,-0.00000211,-0.00000221,0.00000249,-0.000004
 25,-0.00000049,-0.00000025,-0.00000029,0.00000167,-0.00000377,0.000003
 26,0.00000256,0.00000280,0.00000414,-0.00410471,-0.00274308,-0.0036198
 6,0.00557108,-0.02104713,0.00504428,0.00196118,0.00065848,0.00048642,-
 0.00039855,0.00042902,-0.00027468,-0.00001075,0.00027715,-0.00002327,-
 0.00012554,-0.00002831,0.00005382,0.00028510,0.00001524,0.00005571,-0.
 00002098,0.00002309,-0.00001397,0.00039360,-0.00105380,0.00082787,-0.0
 0743205,-0.03783718,-0.04965624,0.00703555,0.04139107,0.04460321,0.000
 39477,0.00155833,0.00061875,0.00016772,-0.00074118,-0.00005239,-0.0010
 0102,-0.00055496,-0.00091299,-0.00007582,0.00079454,0.00033572,0.00027
 738,-0.00034289,0.00029367,0.00012991,0.00019323,0.00032053,-0.0001997
 4,0.00035479,-0.00022899,-0.00002378,0.00004374,0.00005745,0.00002767,
 0.00008507,0.00014417,0.00007567,-0.00032862,-0.00003383,0.00001219,0.
 00004489,0.00002189,-0.00013108,-0.00205317,0.00008135,0.00001268,0.00
 000608,0.00006631,0.00002316,-0.00002744,-0.00000027,0.00001333,-0.000
 02834,0.00003640,0.00000028,-0.00000408,-0.00000286,-0.00000897,-0.000
 02676,-0.00004498,0.00000777,-0.00000687,0.00000504,-0.00005499,0.0000
 0346,-0.00004588,-0.00000558,-0.00002083,-0.00002456,0.00007988,-0.000
 07488,0.00007397,0.00001155,-0.00001839,0.00001658,0.00000218,0.000001
 24,0.00000168,-0.00000934,0.00003174,-0.00000212,-0.00001404,-0.000012
 96,-0.00005466,-0.01146190,-0.00847695,-0.03683142,-0.01146543,-0.0092
 6530,-0.04085409,0.00892979,-0.00071623,0.00349290,-0.00026164,0.00021
 970,0.00016478,-0.00004034,-0.00649287,-0.00298833,-0.00086732,-0.0003
 7146,0.00035023,-0.00228284,0.00449775,-0.00394509,-0.00094432,0.00010
 770,0.00041570,0.00679940,0.00630868,0.00046646,-0.07087949,0.03745968
 ,-0.05521424,-0.00252245,-0.00091508,0.00108464,0.12298793,0.00089324,
 -0.00067797,0.00126108,-0.00035110,0.00004381,-0.00062848,-0.00066292,
 -0.00121211,-0.00137992,0.00048067,0.00096948,0.00121229,0.00023584,0.
 00001294,0.00040612,-0.00013830,0.00011911,-0.00020273,-0.00083861,0.0
 0049868,-0.00132777,0.00011780,-0.00031557,0.00012180,0.00024235,-0.00
 001640,0.00043782,0.00055993,-0.00085749,0.00070368,-0.00001198,-0.000
 03099,-0.00003416,-0.00077638,-0.00204435,-0.00187502,-0.00003625,0.00
 001264,-0.00005208,-0.00000086,0.00004809,0.00000805,-0.00003719,0.000
 06948,-0.00004021,0.00000187,0.00000626,0.00000521,0.00003859,-0.00001
 508,0.00006050,-0.00000430,0.00000038,-0.00000870,-0.00002289,0.000042
 47,-0.00001849,0.00000396,-0.00000989,0.00000242,0.00000213,-0.0001199
 9,-0.00004242,-0.00003203,0.00001574,-0.00005133,-0.00000142,-0.000002
 20,-0.00000377,0.00003166,-0.00002519,0.00004890,0.00003207,-0.0000080
 4,0.00004966,-0.01683046,-0.03019820,-0.04222650,0.01312081,0.00073513
 ,0.02037275,-0.00102933,-0.00174672,-0.00461897,0.00026187,-0.00018079
 ,0.00050738,0.00152140,-0.00056965,0.00236904,-0.00027357,-0.00003663,
 -0.00013070,-0.00102004,-0.00268774,-0.00293116,-0.00024276,0.00057389
 ,0.00013099,0.00199206,0.00809617,0.00368740,0.05504837,-0.09643228,0.
 07731792,0.00933016,-0.00569681,0.01580222,-0.02972593,0.27245646,0.00
 039658,0.00244329,0.00183779,0.00007738,-0.00132242,-0.00023729,-0.000
 94411,-0.00118349,-0.00265785,0.00023085,0.00176539,0.00087164,0.00048
 191,-0.00061951,0.00070319,0.00021116,0.00038590,0.00048906,-0.0006170
 4,0.00079539,-0.00084383,0.00008148,-0.00000964,0.00009449,0.00019537,
 0.00015774,0.00036183,0.00025649,-0.00087459,0.00020145,0.00000327,0.0
 0006718,0.00003605,0.00049528,-0.00413276,-0.00102069,0.00005251,0.000
 02256,0.00007746,0.00000844,-0.00003902,0.00002067,0.00003345,-0.00002
 389,0.00003919,-0.00000084,-0.00000558,-0.00000229,-0.00002378,-0.0000
 5598,-0.00004886,0.00000591,-0.00001330,0.00000982,-0.00005413,0.00002
 910,-0.00011613,-0.00001632,-0.00004166,-0.00003862,0.00009951,-0.0001
 7996,0.00014212,0.00001205,-0.00002713,0.00001158,0.00000079,0.0000009
 9,0.00000325,-0.00000212,0.00004905,0.00000989,-0.00004015,-0.00003031
 ,-0.00006679,-0.03962368,-0.02746793,-0.07153349,-0.03363705,-0.019452
 73,-0.05622745,0.00339920,-0.00406070,0.01154523,0.00017643,0.00043391
 ,0.00014362,-0.00038365,-0.01188351,-0.00408846,0.00037995,-0.00030525
 ,-0.00055226,-0.00574455,0.00687831,-0.00721339,0.00029940,0.00075560,
 -0.00037785,-0.00093489,0.01134416,0.00972805,-0.04943894,0.04603157,-
 0.10593736,0.00441521,-0.00241428,0.00376057,0.12826849,0.02088786,0.2
 7994326,0.00297737,-0.00064300,0.00096881,0.00037250,0.00005222,-0.000
 56454,-0.00197498,0.00550559,0.00087764,-0.00013198,-0.00177640,-0.000
 89670,-0.00032256,0.00053080,0.00003714,0.00005073,-0.00054905,-0.0004
 3719,0.00059129,0.00007412,0.00095754,0.00008120,-0.00002693,0.0003333
 7,0.00023316,0.00008185,0.00022407,-0.00029155,0.00038993,-0.00044880,
 0.00003144,0.00002527,0.00001017,-0.00312849,-0.00013683,-0.00041052,0
 .00014926,-0.00002486,-0.00005699,-0.00006047,-0.00004198,0.00005525,0
 .00005216,-0.00009178,-0.00001412,-0.00000535,-0.00000424,-0.00000345,
 -0.00005449,0.00008706,-0.00002271,0.00000194,-0.00001226,0.00001197,0
 .00012028,-0.00010516,0.00002731,-0.00002721,-0.00004225,-0.00002642,-
 0.00019387,0.00021854,0.00011381,0.00002287,-0.00001284,0.00002704,-0.
 00000010,0.00000155,0.00000254,-0.00001410,0.00003200,-0.00004019,-0.0
 0006676,-0.00001029,0.00001402,-0.13558576,0.04344405,-0.11615746,0.00
 017947,0.03518641,-0.01541017,-0.00037110,0.00211815,-0.00441861,-0.00
 012571,0.00008646,-0.00105508,-0.00207828,0.00754670,0.00155786,0.0000
 2994,0.00010276,0.00003501,0.00735901,-0.00671251,0.00484181,0.0005605
 0,0.00012409,-0.00053674,-0.01150624,-0.01227930,-0.02220100,-0.001524
 64,0.00791358,-0.01914851,0.00219131,0.00042804,-0.00395051,-0.0377032
 0,-0.03187848,-0.00811987,0.18016241,0.00081193,-0.01294387,-0.0035532
 5,-0.00119418,0.00178801,-0.00176218,0.00191972,0.00024257,0.00399246,
 -0.00049656,-0.00116553,-0.00127786,-0.00042021,-0.00057323,-0.0008562
 6,-0.00012870,0.00017006,-0.00023654,0.00047032,-0.00028089,0.00072381
 ,-0.00017964,-0.00028024,-0.00037504,0.00017484,-0.00043256,0.00013056
 ,-0.00025004,0.00030387,-0.00035614,0.00000630,0.00005273,0.00001875,-
 0.00077987,-0.00144432,-0.00067165,0.00001698,0.00000451,-0.00002536,-
 0.00002900,-0.00002722,-0.00002864,0.00001851,-0.00000420,0.00001782,-
 0.00000092,-0.00000544,-0.00000208,-0.00001322,-0.00001646,-0.00002081
 ,-0.00000125,0.00000688,0.00000237,0.00003446,0.00002482,0.00004245,0.
 00000451,0.00009099,0.00004482,-0.00007745,0.00008953,-0.00003798,0.00
 002213,-0.00001511,0.00003276,0.00000128,0.00000035,0.00000281,-0.0000
 1291,-0.00000810,-0.00003023,-0.00001032,-0.00000688,0.00000381,0.0261
 8534,-0.10900923,0.03135200,0.01394871,-0.01116665,0.01621454,0.000375
 42,-0.00603808,-0.00210619,0.00095385,-0.00006623,0.00151731,-0.000648
 20,0.00065885,-0.00042840,0.00005100,0.00019847,0.00014517,0.00002833,
 -0.00398371,-0.00235049,-0.00046284,0.00052404,-0.00093367,-0.01408638
 ,0.01125425,-0.02096857,0.01155322,-0.05944472,-0.00226375,0.00332132,
 0.00002550,0.00446238,0.00849455,-0.14081663,-0.01790445,-0.04960103,0
 .33229383,0.00144687,-0.00609692,0.00288173,-0.00096815,0.00044622,-0.
 00087853,-0.00029919,0.01031408,0.00139157,-0.00047405,-0.00354757,-0.
 00196185,-0.00027373,0.00083659,-0.00045625,-0.00029751,-0.00098217,-0
 .00065658,0.00108345,0.00001871,0.00200273,0.00028295,-0.00010250,0.00
 035787,0.00025400,-0.00003389,0.00056316,-0.00065707,0.00077997,-0.000
 88035,0.00000388,0.00005207,0.00005439,-0.00054038,0.00031772,-0.00395
 324,-0.00004289,-0.00010046,0.00006746,0.00005898,-0.00005113,-0.00001
 112,0.00002175,-0.00017870,0.00002449,-0.00000221,-0.00000788,-0.00001
 113,-0.00005593,0.00015781,-0.00007319,0.00001574,-0.00001727,0.000015
 14,0.00007331,-0.00020621,0.00014739,-0.00001080,-0.00003886,-0.000052
 34,0.00001673,0.00048875,-0.00002791,0.00003849,-0.00002955,0.00006408
 ,0.00000244,0.00000326,0.00000416,-0.00005456,0.00004963,-0.00006667,0
 .00001396,0.00000380,-0.00005056,-0.12176956,0.06225090,-0.25862896,-0
 .02226087,0.05397123,-0.00681246,-0.00497819,0.00099518,-0.00601215,-0
 .00077491,-0.00002582,-0.00089646,-0.00110592,0.01412560,0.00105279,0.
 00001860,0.00023740,0.00013855,0.00702907,-0.01432670,0.01124124,-0.00
 072848,0.00010390,-0.00037099,-0.02279986,-0.01771665,-0.04754074,-0.0
 1799485,-0.00866464,-0.02411805,-0.00301534,-0.00069094,-0.00107899,0.
 00492001,-0.08982071,-0.05906764,0.18382422,-0.00251428,0.39359944||0.
 00000426,0.00000163,-0.00000354,0.00000444,0.00000079,-0.00000288,0.00
 000018,0.00000074,0.00000047,-0.00000074,-0.00000119,-0.00000040,0.000
 00021,0.00000127,0.00000020,-0.00000007,-0.00000097,0.00000006,-0.0000
 0319,-0.00000143,0.00000257,-0.00000464,-0.00000112,0.00000321,0.00000
 752,0.00000207,-0.00000365,-0.00000784,-0.00000182,0.00000370,-0.00000
 580,-0.00000180,0.00000378,0.00000565,0.00000175,-0.00000353,-0.000000
 92,-0.00000059,0.00000217,-0.00000017,-0.00000020,0.00000173,0.0000025
 1,0.00000036,-0.00000007,0.00000445,0.00000093,-0.00000038,0.00000533,
 0.00000164,-0.00000150,0.00000775,0.00000196,-0.00000288,0.00000431,0.
 00000073,-0.00000114,0.00000578,0.00000155,-0.00000249,0.00000026,0.00
 000025,0.00000068,-0.00000277,-0.00000136,0.00000365,-0.00000279,-0.00
 000115,0.00000364,-0.00000672,-0.00000184,0.00000545,-0.00000558,-0.00
 000192,0.00000380,0.00000050,0.00000116,-0.00000133,0.00000060,-0.0000
 0025,-0.00000162,-0.00000262,-0.00000054,-0.00000067,-0.00000443,-0.00
 000087,0.00000061,-0.00000544,-0.00000104,0.00000163,-0.00000772,-0.00
 000204,0.00000284,-0.00000394,-0.00000086,0.00000116,-0.00000599,-0.00
 000161,0.00000252,-0.00000022,-0.00000046,-0.00000087,0.00000240,0.000
 00131,-0.00000381,0.00000278,0.00000113,-0.00000349,0.00000706,0.00000
 240,-0.00000525,0.00000560,0.00000139,-0.00000438|||@


 I DON'T EXACTLY UNDERSTAND WHAT YOU ARE SAYING,
 BUT YOU ARE ABSOLUTELY RIGHT.
     M.S.GORDON, IN A NDSU FACULTY MEETING
 Job cpu time:  0 days  3 hours 18 minutes 55.0 seconds.
 File lengths (MBytes):  RWF=   1257 Int=      0 D2E=      0 Chk=     25 Scr=      1
 Normal termination of Gaussian 09 at Mon Sep 18 13:41:50 2023.
