 Entering Link 1 = C:\G09W\l1.exe PID=     11800.
  
 Copyright (c) 1988,1990,1992,1993,1995,1998,2003,2009,2010,
            Gaussian, Inc.  All Rights Reserved.
  
 This is part of the Gaussian(R) 09 program.  It is based on
 the Gaussian(R) 03 system (copyright 2003, Gaussian, Inc.),
 the Gaussian(R) 98 system (copyright 1998, Gaussian, Inc.),
 the Gaussian(R) 94 system (copyright 1995, Gaussian, Inc.),
 the Gaussian 92(TM) system (copyright 1992, Gaussian, Inc.),
 the Gaussian 90(TM) system (copyright 1990, Gaussian, Inc.),
 the Gaussian 88(TM) system (copyright 1988, Gaussian, Inc.),
 the Gaussian 86(TM) system (copyright 1986, Carnegie Mellon
 University), and the Gaussian 82(TM) system (copyright 1983,
 Carnegie Mellon University). Gaussian is a federally registered
 trademark of Gaussian, Inc.
  
 This software contains proprietary and confidential information,
 including trade secrets, belonging to Gaussian, Inc.
  
 This software is provided under written license and may be
 used, copied, transmitted, or stored only in accord with that
 written license.
  
 The following legend is applicable only to US Government
 contracts under FAR:
  
                    RESTRICTED RIGHTS LEGEND
  
 Use, reproduction and disclosure by the US Government is
 subject to restrictions as set forth in subparagraphs (a)
 and (c) of the Commercial Computer Software - Restricted
 Rights clause in FAR 52.227-19.
  
 Gaussian, Inc.
 340 Quinnipiac St., Bldg. 40, Wallingford CT 06492
  
  
 ---------------------------------------------------------------
 Warning -- This program may not be used in any manner that
 competes with the business of Gaussian, Inc. or will provide
 assistance to any competitor of Gaussian, Inc.  The licensee
 of this program is prohibited from giving any competitor of
 Gaussian, Inc. access to this program.  By using this program,
 the user acknowledges that Gaussian, Inc. is engaged in the
 business of creating and licensing software in the field of
 computational chemistry and represents and warrants to the
 licensee that it is not a competitor of Gaussian, Inc. and that
 it will not use this program in any manner prohibited above.
 ---------------------------------------------------------------
  

 Cite this work as:
 Gaussian 09, Revision B.01,
 M. J. Frisch, G. W. Trucks, H. B. Schlegel, G. E. Scuseria, 
 M. A. Robb, J. R. Cheeseman, G. Scalmani, V. Barone, B. Mennucci, 
 G. A. Petersson, H. Nakatsuji, M. Caricato, X. Li, H. P. Hratchian, 
 A. F. Izmaylov, J. Bloino, G. Zheng, J. L. Sonnenberg, M. Hada, 
 M. Ehara, K. Toyota, R. Fukuda, J. Hasegawa, M. Ishida, T. Nakajima, 
 Y. Honda, O. Kitao, H. Nakai, T. Vreven, J. A. Montgomery, Jr., 
 J. E. Peralta, F. Ogliaro, M. Bearpark, J. J. Heyd, E. Brothers, 
 K. N. Kudin, V. N. Staroverov, T. Keith, R. Kobayashi, J. Normand, 
 K. Raghavachari, A. Rendell, J. C. Burant, S. S. Iyengar, J. Tomasi, 
 M. Cossi, N. Rega, J. M. Millam, M. Klene, J. E. Knox, J. B. Cross, 
 V. Bakken, C. Adamo, J. Jaramillo, R. Gomperts, R. E. Stratmann, 
 O. Yazyev, A. J. Austin, R. Cammi, C. Pomelli, J. W. Ochterski, 
 R. L. Martin, K. Morokuma, V. G. Zakrzewski, G. A. Voth, 
 P. Salvador, J. J. Dannenberg, S. Dapprich, A. D. Daniels, 
 O. Farkas, J. B. Foresman, J. V. Ortiz, J. Cioslowski, 
 and D. J. Fox, Gaussian, Inc., Wallingford CT, 2010.
 
 ******************************************
 Gaussian 09:  IA32W-G09RevB.01 12-Aug-2010
                27-Sep-2023 
 ******************************************
 %nprocshared=6
 Will use up to    6 processors via shared memory.
 %chk=DPP-SUB-5A-CATION.chk
 -----------------------------------------------------------
 # opt=tight freq b3lyp/6-31+g(d,p) nosymm geom=connectivity
 -----------------------------------------------------------
 1/7=10,14=-1,18=20,19=15,26=3,38=1,57=2/1,3;
 2/9=110,12=2,15=1,17=6,18=5,40=1/2;
 3/5=1,6=6,7=111,11=2,16=1,25=1,30=1,71=1,74=-5/1,2,3;
 4//1;
 5/5=2,38=5/2;
 6/7=2,8=2,9=2,10=2,28=1/1;
 7/30=1/1,2,3,16;
 1/7=10,14=-1,18=20,19=15/3(2);
 2/9=110,15=1/2;
 99//99;
 2/9=110,15=1/2;
 3/5=1,6=6,7=111,11=2,16=1,25=1,30=1,71=1,74=-5/1,2,3;
 4/5=5,16=3/1;
 5/5=2,38=5/2;
 7/30=1/1,2,3,16;
 1/7=10,14=-1,18=20,19=15/3(-5);
 2/9=110,15=1/2;
 6/7=2,8=2,9=2,10=2,19=2,28=1/1;
 99/9=1/99;
 -------
 Energy:
 -------
 Symbolic Z-matrix:
 Charge =  1 Multiplicity = 2
 N                    -0.80842  -1.14853  -1.85876 
 C                    -1.04161   0.24521  -1.81663 
 C                    -0.10509  -1.61319  -0.75895 
 C                     0.14716  -0.50912   0.05257 
 C                    -0.4131    0.64958  -0.56455 
 C                    -0.16086   1.75366   0.24697 
 C                     0.77566  -0.10474   1.30465 
 N                     0.54247   1.28899   1.34678 
 O                    -1.64636   0.86788  -2.68928 
 O                     1.38042  -0.72742   2.1773 
 H                     0.85269   1.89738   2.09767 
 H                    -1.11864  -1.75692  -2.60964 
 C                    -0.1586    4.16837   1.0384 
 C                    -0.5426    5.54753   0.80393 
 C                    -1.26874   5.90555  -0.36953 
 H                    -1.55371   6.93899  -0.54015 
 C                    -1.5932    4.91661  -1.26641 
 H                    -2.14575   5.16152  -2.16803 
 C                    -1.2236    3.56052  -1.05025 
 H                    -1.50601   2.81792  -1.79266 
 C                    -0.51506   3.14983   0.07369 
 C                    -0.09749   6.34307   1.85358 
 H                    -0.21886   7.41035   1.98452 
 S                     0.71893   5.37219   2.98954 
 N                     0.51992   3.93996   2.17034 
 C                    -0.10735  -4.02791  -1.55038 
 C                     0.27664  -5.40707  -1.3159 
 C                     1.00278  -5.76509  -0.14244 
 H                     1.28775  -6.79853   0.02819 
 C                     1.32724  -4.77615   0.75444 
 H                     1.8798   -5.02106   1.65605 
 C                     0.95765  -3.42006   0.53828 
 H                     1.24006  -2.67746   1.28069 
 C                     0.24911  -3.00937  -0.58566 
 C                    -0.16847  -6.20261  -2.36555 
 H                    -0.04711  -7.26989  -2.49649 
 S                    -0.98488  -5.23173  -3.50152 
 N                    -0.78587  -3.7995   -2.68232 
 

 GradGradGradGradGradGradGradGradGradGradGradGradGradGradGradGradGradGrad
 Berny optimization.
 Initialization pass.
                           ----------------------------
                           !    Initial Parameters    !
                           ! (Angstroms and Degrees)  !
 --------------------------                            --------------------------
 ! Name  Definition              Value          Derivative Info.                !
 --------------------------------------------------------------------------------
 ! R1    R(1,2)                  1.4137         estimate D2E/DX2                !
 ! R2    R(1,3)                  1.3857         estimate D2E/DX2                !
 ! R3    R(1,12)                 1.015          estimate D2E/DX2                !
 ! R4    R(2,5)                  1.4582         estimate D2E/DX2                !
 ! R5    R(2,9)                  1.2308         estimate D2E/DX2                !
 ! R6    R(3,4)                  1.3933         estimate D2E/DX2                !
 ! R7    R(3,34)                 1.4508         estimate D2E/DX2                !
 ! R8    R(4,5)                  1.4273         estimate D2E/DX2                !
 ! R9    R(4,7)                  1.4582         estimate D2E/DX2                !
 ! R10   R(5,6)                  1.3933         estimate D2E/DX2                !
 ! R11   R(6,8)                  1.3857         estimate D2E/DX2                !
 ! R12   R(6,21)                 1.4508         estimate D2E/DX2                !
 ! R13   R(7,8)                  1.4137         estimate D2E/DX2                !
 ! R14   R(7,10)                 1.2308         estimate D2E/DX2                !
 ! R15   R(8,11)                 1.015          estimate D2E/DX2                !
 ! R16   R(11,25)                2.0708         estimate D2E/DX2                !
 ! R17   R(12,38)                2.0708         estimate D2E/DX2                !
 ! R18   R(13,14)                1.4507         estimate D2E/DX2                !
 ! R19   R(13,21)                1.4475         estimate D2E/DX2                !
 ! R20   R(13,25)                1.3393         estimate D2E/DX2                !
 ! R21   R(14,15)                1.4256         estimate D2E/DX2                !
 ! R22   R(14,22)                1.3902         estimate D2E/DX2                !
 ! R23   R(15,16)                1.0855         estimate D2E/DX2                !
 ! R24   R(15,17)                1.3739         estimate D2E/DX2                !
 ! R25   R(17,18)                1.0855         estimate D2E/DX2                !
 ! R26   R(17,19)                1.4221         estimate D2E/DX2                !
 ! R27   R(19,20)                1.0874         estimate D2E/DX2                !
 ! R28   R(19,21)                1.3907         estimate D2E/DX2                !
 ! R29   R(22,23)                1.0821         estimate D2E/DX2                !
 ! R30   R(22,24)                1.7028         estimate D2E/DX2                !
 ! R31   R(24,25)                1.6619         estimate D2E/DX2                !
 ! R32   R(26,27)                1.4507         estimate D2E/DX2                !
 ! R33   R(26,34)                1.4475         estimate D2E/DX2                !
 ! R34   R(26,38)                1.3393         estimate D2E/DX2                !
 ! R35   R(27,28)                1.4256         estimate D2E/DX2                !
 ! R36   R(27,35)                1.3902         estimate D2E/DX2                !
 ! R37   R(28,29)                1.0855         estimate D2E/DX2                !
 ! R38   R(28,30)                1.3739         estimate D2E/DX2                !
 ! R39   R(30,31)                1.0855         estimate D2E/DX2                !
 ! R40   R(30,32)                1.4221         estimate D2E/DX2                !
 ! R41   R(32,33)                1.0874         estimate D2E/DX2                !
 ! R42   R(32,34)                1.3907         estimate D2E/DX2                !
 ! R43   R(35,36)                1.0821         estimate D2E/DX2                !
 ! R44   R(35,37)                1.7028         estimate D2E/DX2                !
 ! R45   R(37,38)                1.6619         estimate D2E/DX2                !
 ! A1    A(2,1,3)              112.9951         estimate D2E/DX2                !
 ! A2    A(2,1,12)             124.233          estimate D2E/DX2                !
 ! A3    A(3,1,12)             122.772          estimate D2E/DX2                !
 ! A4    A(1,2,5)              103.1728         estimate D2E/DX2                !
 ! A5    A(1,2,9)              123.9624         estimate D2E/DX2                !
 ! A6    A(5,2,9)              132.8648         estimate D2E/DX2                !
 ! A7    A(1,3,4)              106.7654         estimate D2E/DX2                !
 ! A8    A(1,3,34)             122.7805         estimate D2E/DX2                !
 ! A9    A(4,3,34)             130.454          estimate D2E/DX2                !
 ! A10   A(3,4,5)              108.6872         estimate D2E/DX2                !
 ! A11   A(3,4,7)              142.9333         estimate D2E/DX2                !
 ! A12   A(5,4,7)              108.3795         estimate D2E/DX2                !
 ! A13   A(2,5,4)              108.3795         estimate D2E/DX2                !
 ! A14   A(2,5,6)              142.9333         estimate D2E/DX2                !
 ! A15   A(4,5,6)              108.6872         estimate D2E/DX2                !
 ! A16   A(5,6,8)              106.7654         estimate D2E/DX2                !
 ! A17   A(5,6,21)             130.454          estimate D2E/DX2                !
 ! A18   A(8,6,21)             122.7805         estimate D2E/DX2                !
 ! A19   A(4,7,8)              103.1727         estimate D2E/DX2                !
 ! A20   A(4,7,10)             132.8649         estimate D2E/DX2                !
 ! A21   A(8,7,10)             123.9624         estimate D2E/DX2                !
 ! A22   A(6,8,7)              112.9951         estimate D2E/DX2                !
 ! A23   A(6,8,11)             122.772          estimate D2E/DX2                !
 ! A24   A(7,8,11)             124.2329         estimate D2E/DX2                !
 ! A25   A(14,13,21)           119.7401         estimate D2E/DX2                !
 ! A26   A(14,13,25)           115.6466         estimate D2E/DX2                !
 ! A27   A(21,13,25)           124.6133         estimate D2E/DX2                !
 ! A28   A(13,14,15)           120.4374         estimate D2E/DX2                !
 ! A29   A(13,14,22)           109.7088         estimate D2E/DX2                !
 ! A30   A(15,14,22)           129.8538         estimate D2E/DX2                !
 ! A31   A(14,15,16)           120.1438         estimate D2E/DX2                !
 ! A32   A(14,15,17)           118.4794         estimate D2E/DX2                !
 ! A33   A(16,15,17)           121.3767         estimate D2E/DX2                !
 ! A34   A(15,17,18)           120.003          estimate D2E/DX2                !
 ! A35   A(15,17,19)           121.7215         estimate D2E/DX2                !
 ! A36   A(18,17,19)           118.2755         estimate D2E/DX2                !
 ! A37   A(17,19,20)           118.6828         estimate D2E/DX2                !
 ! A38   A(17,19,21)           122.4713         estimate D2E/DX2                !
 ! A39   A(20,19,21)           118.8458         estimate D2E/DX2                !
 ! A40   A(6,21,13)            122.5103         estimate D2E/DX2                !
 ! A41   A(6,21,19)            120.3395         estimate D2E/DX2                !
 ! A42   A(13,21,19)           117.1502         estimate D2E/DX2                !
 ! A43   A(14,22,23)           128.3044         estimate D2E/DX2                !
 ! A44   A(14,22,24)           109.3243         estimate D2E/DX2                !
 ! A45   A(23,22,24)           122.3713         estimate D2E/DX2                !
 ! A46   A(22,24,25)            96.034          estimate D2E/DX2                !
 ! A47   A(13,25,24)           109.2863         estimate D2E/DX2                !
 ! A48   A(27,26,34)           119.7402         estimate D2E/DX2                !
 ! A49   A(27,26,38)           115.6465         estimate D2E/DX2                !
 ! A50   A(34,26,38)           124.6133         estimate D2E/DX2                !
 ! A51   A(26,27,28)           120.4373         estimate D2E/DX2                !
 ! A52   A(26,27,35)           109.7088         estimate D2E/DX2                !
 ! A53   A(28,27,35)           129.8538         estimate D2E/DX2                !
 ! A54   A(27,28,29)           120.1439         estimate D2E/DX2                !
 ! A55   A(27,28,30)           118.4794         estimate D2E/DX2                !
 ! A56   A(29,28,30)           121.3766         estimate D2E/DX2                !
 ! A57   A(28,30,31)           120.0029         estimate D2E/DX2                !
 ! A58   A(28,30,32)           121.7216         estimate D2E/DX2                !
 ! A59   A(31,30,32)           118.2755         estimate D2E/DX2                !
 ! A60   A(30,32,33)           118.6829         estimate D2E/DX2                !
 ! A61   A(30,32,34)           122.4713         estimate D2E/DX2                !
 ! A62   A(33,32,34)           118.8458         estimate D2E/DX2                !
 ! A63   A(3,34,26)            122.5102         estimate D2E/DX2                !
 ! A64   A(3,34,32)            120.3395         estimate D2E/DX2                !
 ! A65   A(26,34,32)           117.1502         estimate D2E/DX2                !
 ! A66   A(27,35,36)           128.3043         estimate D2E/DX2                !
 ! A67   A(27,35,37)           109.3243         estimate D2E/DX2                !
 ! A68   A(36,35,37)           122.3714         estimate D2E/DX2                !
 ! A69   A(35,37,38)            96.034          estimate D2E/DX2                !
 ! A70   A(26,38,37)           109.2864         estimate D2E/DX2                !
 ! D1    D(3,1,2,5)             -0.0064         estimate D2E/DX2                !
 ! D2    D(3,1,2,9)            179.9948         estimate D2E/DX2                !
 ! D3    D(12,1,2,5)           179.9568         estimate D2E/DX2                !
 ! D4    D(12,1,2,9)            -0.042          estimate D2E/DX2                !
 ! D5    D(2,1,3,4)              0.0022         estimate D2E/DX2                !
 ! D6    D(2,1,3,34)           179.9825         estimate D2E/DX2                !
 ! D7    D(12,1,3,4)          -179.9616         estimate D2E/DX2                !
 ! D8    D(12,1,3,34)            0.0187         estimate D2E/DX2                !
 ! D9    D(1,2,5,4)              0.0081         estimate D2E/DX2                !
 ! D10   D(1,2,5,6)            179.9969         estimate D2E/DX2                !
 ! D11   D(9,2,5,4)           -179.9933         estimate D2E/DX2                !
 ! D12   D(9,2,5,6)             -0.0044         estimate D2E/DX2                !
 ! D13   D(1,3,4,5)              0.0032         estimate D2E/DX2                !
 ! D14   D(1,3,4,7)            179.992          estimate D2E/DX2                !
 ! D15   D(34,3,4,5)          -179.9751         estimate D2E/DX2                !
 ! D16   D(34,3,4,7)             0.0137         estimate D2E/DX2                !
 ! D17   D(1,3,34,26)           -0.076          estimate D2E/DX2                !
 ! D18   D(1,3,34,32)          179.9345         estimate D2E/DX2                !
 ! D19   D(4,3,34,26)          179.8993         estimate D2E/DX2                !
 ! D20   D(4,3,34,32)           -0.0902         estimate D2E/DX2                !
 ! D21   D(3,4,5,2)             -0.0072         estimate D2E/DX2                !
 ! D22   D(3,4,5,6)            179.9998         estimate D2E/DX2                !
 ! D23   D(7,4,5,2)            179.9999         estimate D2E/DX2                !
 ! D24   D(7,4,5,6)              0.0069         estimate D2E/DX2                !
 ! D25   D(3,4,7,8)           -179.9967         estimate D2E/DX2                !
 ! D26   D(3,4,7,10)             0.0044         estimate D2E/DX2                !
 ! D27   D(5,4,7,8)             -0.0078         estimate D2E/DX2                !
 ! D28   D(5,4,7,10)           179.9933         estimate D2E/DX2                !
 ! D29   D(2,5,6,8)           -179.9919         estimate D2E/DX2                !
 ! D30   D(2,5,6,21)            -0.0137         estimate D2E/DX2                !
 ! D31   D(4,5,6,8)             -0.003          estimate D2E/DX2                !
 ! D32   D(4,5,6,21)           179.9752         estimate D2E/DX2                !
 ! D33   D(5,6,8,7)             -0.0022         estimate D2E/DX2                !
 ! D34   D(5,6,8,11)           179.9621         estimate D2E/DX2                !
 ! D35   D(21,6,8,7)          -179.9825         estimate D2E/DX2                !
 ! D36   D(21,6,8,11)           -0.0182         estimate D2E/DX2                !
 ! D37   D(5,6,21,13)         -179.8993         estimate D2E/DX2                !
 ! D38   D(5,6,21,19)            0.0903         estimate D2E/DX2                !
 ! D39   D(8,6,21,13)            0.0759         estimate D2E/DX2                !
 ! D40   D(8,6,21,19)         -179.9345         estimate D2E/DX2                !
 ! D41   D(4,7,8,6)              0.0063         estimate D2E/DX2                !
 ! D42   D(4,7,8,11)          -179.9574         estimate D2E/DX2                !
 ! D43   D(10,7,8,6)          -179.9947         estimate D2E/DX2                !
 ! D44   D(10,7,8,11)            0.0416         estimate D2E/DX2                !
 ! D45   D(21,13,14,15)          0.0261         estimate D2E/DX2                !
 ! D46   D(21,13,14,22)       -179.9956         estimate D2E/DX2                !
 ! D47   D(25,13,14,15)       -179.9769         estimate D2E/DX2                !
 ! D48   D(25,13,14,22)          0.0014         estimate D2E/DX2                !
 ! D49   D(14,13,21,6)         179.9391         estimate D2E/DX2                !
 ! D50   D(14,13,21,19)         -0.0508         estimate D2E/DX2                !
 ! D51   D(25,13,21,6)          -0.0576         estimate D2E/DX2                !
 ! D52   D(25,13,21,19)        179.9525         estimate D2E/DX2                !
 ! D53   D(14,13,25,24)          0.0013         estimate D2E/DX2                !
 ! D54   D(21,13,25,24)        179.9981         estimate D2E/DX2                !
 ! D55   D(13,14,15,16)        179.9954         estimate D2E/DX2                !
 ! D56   D(13,14,15,17)          0.0051         estimate D2E/DX2                !
 ! D57   D(22,14,15,16)          0.022          estimate D2E/DX2                !
 ! D58   D(22,14,15,17)       -179.9683         estimate D2E/DX2                !
 ! D59   D(13,14,22,23)        179.9976         estimate D2E/DX2                !
 ! D60   D(13,14,22,24)         -0.0033         estimate D2E/DX2                !
 ! D61   D(15,14,22,23)         -0.0268         estimate D2E/DX2                !
 ! D62   D(15,14,22,24)        179.9723         estimate D2E/DX2                !
 ! D63   D(14,15,17,18)        179.993          estimate D2E/DX2                !
 ! D64   D(14,15,17,19)         -0.0107         estimate D2E/DX2                !
 ! D65   D(16,15,17,18)          0.0029         estimate D2E/DX2                !
 ! D66   D(16,15,17,19)        179.9992         estimate D2E/DX2                !
 ! D67   D(15,17,19,20)       -179.997          estimate D2E/DX2                !
 ! D68   D(15,17,19,21)         -0.0165         estimate D2E/DX2                !
 ! D69   D(18,17,19,20)         -0.0006         estimate D2E/DX2                !
 ! D70   D(18,17,19,21)        179.9799         estimate D2E/DX2                !
 ! D71   D(17,19,21,6)        -179.9433         estimate D2E/DX2                !
 ! D72   D(17,19,21,13)          0.0468         estimate D2E/DX2                !
 ! D73   D(20,19,21,6)           0.0371         estimate D2E/DX2                !
 ! D74   D(20,19,21,13)       -179.9728         estimate D2E/DX2                !
 ! D75   D(14,22,24,25)          0.0037         estimate D2E/DX2                !
 ! D76   D(23,22,24,25)       -179.9972         estimate D2E/DX2                !
 ! D77   D(22,24,25,13)         -0.0028         estimate D2E/DX2                !
 ! D78   D(34,26,27,28)         -0.0262         estimate D2E/DX2                !
 ! D79   D(34,26,27,35)        179.9956         estimate D2E/DX2                !
 ! D80   D(38,26,27,28)        179.9765         estimate D2E/DX2                !
 ! D81   D(38,26,27,35)         -0.0017         estimate D2E/DX2                !
 ! D82   D(27,26,34,3)        -179.9389         estimate D2E/DX2                !
 ! D83   D(27,26,34,32)          0.0508         estimate D2E/DX2                !
 ! D84   D(38,26,34,3)           0.0581         estimate D2E/DX2                !
 ! D85   D(38,26,34,32)       -179.9521         estimate D2E/DX2                !
 ! D86   D(27,26,38,37)         -0.0011         estimate D2E/DX2                !
 ! D87   D(34,26,38,37)       -179.9983         estimate D2E/DX2                !
 ! D88   D(26,27,28,29)       -179.9954         estimate D2E/DX2                !
 ! D89   D(26,27,28,30)         -0.0051         estimate D2E/DX2                !
 ! D90   D(35,27,28,29)         -0.0222         estimate D2E/DX2                !
 ! D91   D(35,27,28,30)        179.9681         estimate D2E/DX2                !
 ! D92   D(26,27,35,36)       -179.9974         estimate D2E/DX2                !
 ! D93   D(26,27,35,37)          0.0036         estimate D2E/DX2                !
 ! D94   D(28,27,35,36)          0.0271         estimate D2E/DX2                !
 ! D95   D(28,27,35,37)       -179.9719         estimate D2E/DX2                !
 ! D96   D(27,28,30,31)       -179.993          estimate D2E/DX2                !
 ! D97   D(27,28,30,32)          0.0107         estimate D2E/DX2                !
 ! D98   D(29,28,30,31)         -0.0028         estimate D2E/DX2                !
 ! D99   D(29,28,30,32)       -179.9991         estimate D2E/DX2                !
 ! D100  D(28,30,32,33)        179.9967         estimate D2E/DX2                !
 ! D101  D(28,30,32,34)          0.0165         estimate D2E/DX2                !
 ! D102  D(31,30,32,33)          0.0003         estimate D2E/DX2                !
 ! D103  D(31,30,32,34)       -179.9799         estimate D2E/DX2                !
 ! D104  D(30,32,34,3)         179.9432         estimate D2E/DX2                !
 ! D105  D(30,32,34,26)         -0.0468         estimate D2E/DX2                !
 ! D106  D(33,32,34,3)          -0.037          estimate D2E/DX2                !
 ! D107  D(33,32,34,26)        179.973          estimate D2E/DX2                !
 ! D108  D(27,35,37,38)         -0.0038         estimate D2E/DX2                !
 ! D109  D(36,35,37,38)        179.9971         estimate D2E/DX2                !
 ! D110  D(35,37,38,26)          0.0029         estimate D2E/DX2                !
 --------------------------------------------------------------------------------
 Trust Radius=3.00D-01 FncErr=1.00D-07 GrdErr=1.00D-06
 Number of steps in this run=    228 maximum allowed number of steps=    228.
 GradGradGradGradGradGradGradGradGradGradGradGradGradGradGradGradGradGrad

                          Input orientation:                          
 ---------------------------------------------------------------------
 Center     Atomic      Atomic             Coordinates (Angstroms)
 Number     Number       Type             X           Y           Z
 ---------------------------------------------------------------------
      1          7           0       -0.808415   -1.148528   -1.858761
      2          6           0       -1.041605    0.245206   -1.816629
      3          6           0       -0.105090   -1.613194   -0.758950
      4          6           0        0.147156   -0.509119    0.052568
      5          6           0       -0.413100    0.649581   -0.564548
      6          6           0       -0.160857    1.753656    0.246972
      7          6           0        0.775664   -0.104744    1.304648
      8          7           0        0.542470    1.288990    1.346781
      9          8           0       -1.646363    0.867879   -2.689282
     10          8           0        1.380422   -0.727416    2.177301
     11          1           0        0.852689    1.897380    2.097667
     12          1           0       -1.118641   -1.756920   -2.609643
     13          6           0       -0.158603    4.168368    1.038401
     14          6           0       -0.542595    5.547533    0.803932
     15          6           0       -1.268743    5.905546   -0.369529
     16          1           0       -1.553712    6.938990   -0.540154
     17          6           0       -1.593199    4.916614   -1.266408
     18          1           0       -2.145753    5.161518   -2.168027
     19          6           0       -1.223601    3.560518   -1.050254
     20          1           0       -1.506009    2.817923   -1.792663
     21          6           0       -0.515056    3.149834    0.073686
     22          6           0       -0.097488    6.343073    1.853582
     23          1           0       -0.218858    7.410346    1.984521
     24         16           0        0.718931    5.372194    2.989539
     25          7           0        0.519922    3.939963    2.170342
     26          6           0       -0.107350   -4.027907   -1.550375
     27          6           0        0.276636   -5.407074   -1.315903
     28          6           0        1.002782   -5.765087   -0.142442
     29          1           0        1.287747   -6.798531    0.028188
     30          6           0        1.327242   -4.776154    0.754435
     31          1           0        1.879795   -5.021059    1.656054
     32          6           0        0.957649   -3.420057    0.538279
     33          1           0        1.240056   -2.677462    1.280688
     34          6           0        0.249106   -3.009373   -0.585662
     35          6           0       -0.168473   -6.202614   -2.365553
     36          1           0       -0.047109   -7.269887   -2.496488
     37         16           0       -0.984879   -5.231731   -3.501516
     38          7           0       -0.785867   -3.799501   -2.682321
 ---------------------------------------------------------------------
                    Distance matrix (angstroms):
                    1          2          3          4          5
     1  N    0.000000
     2  C    1.413735   0.000000
     3  C    1.385700   2.334394   0.000000
     4  C    2.230502   2.340098   1.393259   0.000000
     5  C    2.250435   1.458165   2.291902   1.427342   0.000000
     6  C    3.643640   2.703625   3.514352   2.291902   1.393260
     7  C    3.688624   3.628678   2.703625   1.458165   2.340098
     8  N    4.247574   3.688623   3.643640   2.250435   2.230501
     9  O    2.336198   1.230844   3.501061   3.553952   2.466391
    10  O    4.610655   4.771130   3.407773   2.466392   3.553952
    11  H    5.262143   4.651854   4.626201   3.235961   3.201033
    12  H    1.014990   2.154835   2.114949   3.201034   3.235962
    13  C    6.089761   4.931743   6.054733   4.790015   3.875058
    14  C    7.210952   5.935573   7.342344   6.141933   5.087184
    15  C    7.224242   5.846806   7.618214   6.582618   5.328726
    16  H    8.228131   6.833622   8.676764   7.662806   6.392046
    17  C    6.144324   4.735932   6.716426   5.848685   4.482501
    18  H    6.457616   5.051014   7.214328   6.507273   5.092230
    19  C    4.795954   3.407601   5.301247   4.433637   3.060454
    20  H    4.027870   2.614406   4.760875   4.148137   2.721107
    21  C    4.721899   3.505340   4.852607   3.718455   2.582441
    22  C    8.391126   7.179540   8.374220   7.089149   6.193772
    23  H    9.400676   8.152600   9.432065   8.159922   7.227961
    24  S    8.267927   7.244636   7.970309   6.598679   6.017982
    25  N    6.625020   5.655575   6.309433   4.941483   4.379129
    26  C    2.979500   4.382148   2.541102   3.875057   4.790014
    27  C    4.428007   5.825526   3.853497   5.087184   6.141933
    28  C    5.247743   6.565519   4.341161   5.328726   6.582618
    29  H    6.314824   7.644832   5.426537   6.392045   7.662806
    30  C    4.954745   6.118485   3.787641   4.482500   5.848684
    31  H    5.880212   6.951809   4.624452   5.092230   6.507273
    32  C    3.744947   4.793408   2.465151   3.060453   4.433637
    33  H    4.048458   4.831287   2.664997   2.721106   4.148136
    34  C    2.490357   3.711267   1.450793   2.582441   3.718455
    35  C    5.119585   6.529783   4.862917   6.193772   7.089149
    36  H    6.201397   7.611035   5.917818   7.227960   8.159921
    37  S    4.404808   5.730524   4.624879   6.017980   6.598677
    38  N    2.776043   4.144210   2.990443   4.379128   4.941482
                    6          7          8          9         10
     6  C    0.000000
     7  C    2.334395   0.000000
     8  N    1.385700   1.413736   0.000000
     9  O    3.407773   4.771131   4.610654   0.000000
    10  O    3.501061   1.230844   2.336198   5.948951   0.000000
    11  H    2.114948   2.154835   1.014990   5.497273   2.678507
    12  H    4.626202   4.651855   5.262143   2.678508   5.497275
    13  C    2.541102   4.382149   2.979500   5.196372   5.256842
    14  C    3.853496   5.825526   4.428006   5.943064   6.705156
    15  C    4.341161   6.565520   5.247743   5.558951   7.582915
    16  H    5.426537   7.644833   6.314824   6.440941   8.646819
    17  C    3.787641   6.118486   4.954745   4.291812   7.249595
    18  H    4.624452   6.951810   5.880212   4.353899   8.123751
    19  C    2.465151   4.793409   3.744946   3.180479   5.965268
    20  H    2.664997   4.831289   4.048458   2.150883   6.054876
    21  C    1.450792   3.711267   2.490356   3.757814   4.801156
    22  C    4.862917   6.529783   5.119585   7.281097   7.230548
    23  H    5.917819   7.611037   6.201398   8.166155   8.295663
    24  S    4.624880   5.730526   4.404810   7.624466   6.188905
    25  N    2.990443   4.144211   2.776044   6.143813   4.746044
    26  C    6.054733   4.931742   6.089760   5.256842   5.196371
    27  C    7.342345   5.935572   7.210952   6.705157   5.943065
    28  C    7.618215   5.846806   7.224242   7.582915   5.558952
    29  H    8.676763   6.833620   8.228130   8.646819   6.440940
    30  C    6.716426   4.735931   6.144324   7.249595   4.291813
    31  H    7.214329   5.051014   6.457616   8.123751   4.353900
    32  C    5.301247   3.407600   4.795954   5.965268   3.180479
    33  H    4.760875   2.614405   4.027870   6.054876   2.150883
    34  C    4.852607   3.505339   4.721898   4.801156   3.757814
    35  C    8.374221   7.179540   8.391126   7.230548   7.281098
    36  H    9.432064   8.152599   9.400675   8.295663   8.166154
    37  S    7.970308   7.244634   8.267925   6.188904   7.624465
    38  N    6.309433   5.655575   6.625019   4.746044   6.143813
                   11         12         13         14         15
    11  H    0.000000
    12  H    6.276848   0.000000
    13  C    2.702248   7.024168   0.000000
    14  C    4.116331   8.083276   1.450697   0.000000
    15  C    5.162647   7.984612   2.496491   1.425649   0.000000
    16  H    6.177920   8.949353   3.480591   2.182906   1.085508
    17  C    5.139566   6.823895   2.816040   2.405854   1.373918
    18  H    6.151536   7.008193   3.900807   3.398774   2.134788
    19  C    4.121458   5.542369   2.422020   2.801786   2.442249
    20  H    4.641716   4.663336   3.413814   3.888604   3.408082
    21  C    2.745153   5.625016   1.447462   2.506587   2.891095
    22  C    4.552648   9.304462   2.323273   1.390241   2.550586
    23  H    5.617278  10.293431   3.377750   2.229051   2.984666
    24  S    3.589939   9.249420   2.454832   2.529638   3.939372
    25  N    2.070787   7.614960   1.339349   2.362266   3.676110
    26  C    7.024166   2.702247   8.595540   9.870220  10.070587
    27  C    8.083276   4.116332   9.870221  11.187862  11.456840
    28  C    7.984611   5.162647  10.070588  11.456840  11.891807
    29  H    8.949351   6.177920  11.107895  12.505088  12.964852
    30  C    6.823894   5.139566   9.071540  10.491771  11.049939
    31  H    7.008193   6.151536   9.433034  10.876085  11.550194
    32  C    5.542368   4.121458   7.686373   9.096097   9.630566
    33  H    4.663334   4.641716   6.991448   8.429453   9.093147
    34  C    5.625015   2.745154   7.370466   8.705079   9.045792
    35  C    9.304462   4.552647  10.915323  12.175860  12.320805
    36  H   10.293429   5.617276  11.972533  13.244793  13.401805
    37  S    9.249418   3.589936  10.471649  11.615723  11.572764
    38  N    7.614959   2.070787   8.816131   9.978987   9.988499
                   16         17         18         19         20
    16  H    0.000000
    17  C    2.149188   0.000000
    18  H    2.481913   1.085454   0.000000
    19  C    3.432674   1.422084   2.159394   0.000000
    20  H    4.307464   2.165422   2.458172   1.087370   0.000000
    21  C    3.976595   2.465716   3.425102   1.390661   2.139021
    22  C    2.864555   3.742496   4.665276   4.176483   5.263622
    23  H    2.894477   4.321580   5.100373   5.004053   6.083932
    24  S    4.480903   4.864831   5.903498   4.834825   5.860385
    25  N    4.543227   4.150949   5.236360   3.681860   4.590074
    26  C   11.107895   9.071540   9.433033   7.686373   6.991448
    27  C   12.505089  10.491771  10.876085   9.096097   8.429454
    28  C   12.964853  11.049939  11.550193   9.630567   9.093147
    29  H   14.039814  12.133443  12.635468  10.713534  10.178249
    30  C   12.133444  10.322913  10.925191   8.903022   8.496177
    31  H   12.635469  10.925192  11.597996   9.518331   9.209069
    32  C   10.713534   8.903022   9.518331   7.483964   7.100373
    33  H   10.178249   8.496177   9.209069   7.100373   6.869179
    34  C   10.110497   8.165707   8.660409   6.748939   6.204406
    35  C   13.339892  11.263889  11.536557   9.907676   9.137138
    36  H   14.421833  12.345619  12.611583  10.989695  10.217028
    37  S   12.538727  10.409355  10.542554   9.130680   8.245525
    38  N   10.976960   8.867201   9.078196   7.551499   6.715683
                   21         22         23         24         25
    21  C    0.000000
    22  C    3.679561   0.000000
    23  H    4.678780   1.082103   0.000000
    24  S    3.868308   1.702805   2.458368   0.000000
    25  N    2.468086   2.501294   3.553010   1.661919   0.000000
    26  C    7.370466  10.915322  11.972533  10.471650   8.816131
    27  C    8.705079  12.175860  13.244794  11.615725   9.978988
    28  C    9.045792  12.320805  13.401806  11.572766   9.988499
    29  H   10.110496  13.339891  14.421834  12.538728  10.976959
    30  C    8.165707  11.263889  12.345619  10.409356   8.867201
    31  H    8.660409  11.536558  12.611585  10.542556   9.078197
    32  C    6.748939   9.907676  10.989696   9.130681   7.551498
    33  H    6.204406   9.137138  10.217029   8.245526   6.715682
    34  C    6.241355   9.671519  10.742224   9.124334   7.480787
    35  C    9.671520  13.236329  14.291199  12.784392  11.131941
    36  H   10.742223  14.291198  15.349859  13.802374  12.155721
    37  S    9.124332  12.784390  13.802373  12.549103  10.888268
    38  N    7.480787  11.131940  12.155722  10.888269   9.227823
                   26         27         28         29         30
    26  C    0.000000
    27  C    1.450698   0.000000
    28  C    2.496490   1.425648   0.000000
    29  H    3.480591   2.182906   1.085507   0.000000
    30  C    2.816039   2.405854   1.373918   2.149187   0.000000
    31  H    3.900805   3.398773   2.134787   2.481910   1.085454
    32  C    2.422020   2.801786   2.442250   3.432673   1.422083
    33  H    3.413813   3.888604   3.408082   4.307463   2.165422
    34  C    1.447461   2.506587   2.891095   3.976595   2.465715
    35  C    2.323274   1.390241   2.550586   2.864558   3.742496
    36  H    3.377750   2.229050   2.984665   2.894479   4.321579
    37  S    2.454832   2.529638   3.939371   4.480904   4.864830
    38  N    1.339349   2.362266   3.676109   4.543227   4.150948
                   31         32         33         34         35
    31  H    0.000000
    32  C    2.159394   0.000000
    33  H    2.458173   1.087369   0.000000
    34  C    3.425101   1.390661   2.139021   0.000000
    35  C    4.665276   4.176484   5.263623   3.679561   0.000000
    36  H    5.100372   5.004052   6.083931   4.678780   1.082102
    37  S    5.903496   4.834824   5.860384   3.868307   1.702805
    38  N    5.236359   3.681860   4.590074   2.468086   2.501294
                   36         37         38
    36  H    0.000000
    37  S    2.458368   0.000000
    38  N    3.553009   1.661917   0.000000
 Symmetry turned off by external request.
 Stoichiometry    C20H10N4O2S2(1+,2)
 Framework group  C1[X(C20H10N4O2S2)]
 Deg. of freedom   108
 Full point group                 C1      NOp   1
 Rotational constants (GHZ):      0.4341146      0.0706148      0.0607354
 Standard basis: 6-31+G(d,p) (6D, 7F)
 Integral buffers will be    262144 words long.
 Raffenetti 2 integral format.
 Two-electron integral symmetry is turned off.
   590 basis functions,  1014 primitive gaussians,   590 cartesian basis functions
   103 alpha electrons      102 beta electrons
       nuclear repulsion energy      2617.2813234888 Hartrees.
 NAtoms=   38 NActive=   38 NUniq=   38 SFac= 1.00D+00 NAtFMM=   50 NAOKFM=F Big=F
 One-electron integrals computed using PRISM.
 NBasis=   590 RedAO= T  NBF=   590
 NBsUse=   580 1.00D-06 NBFU=   580
 Harris functional with IExCor=  402 diagonalized for initial guess.
 ExpMin= 4.05D-02 ExpMax= 2.19D+04 ExpMxC= 3.30D+03 IAcc=2 IRadAn=         0 AccDes= 0.00D+00
 HarFok:  IExCor=  402 AccDes= 0.00D+00 IRadAn=         0 IDoV= 1
 ScaDFX=  1.000000  1.000000  1.000000  1.000000
 FoFCou: FMM=F IPFlag=           0 FMFlag=      100000 FMFlg1=           0
         NFxFlg=           0 DoJE=T BraDBF=F KetDBF=T FulRan=T
         Omega=  0.000000  0.000000  1.000000  0.000000  0.000000 ICntrl=     500 IOpCl=  0
         NMat0=    1 NMatS0=    1 NMatT0=    0 NMatD0=    1 NMtDS0=    0 NMtDT0=    0
         I1Cent=           4 NGrid=           0.
 Symmetry not used in FoFCou.
 Initial guess <Sx>= 0.0000 <Sy>= 0.0000 <Sz>= 0.5000 <S**2>= 0.7500 S= 0.5000
 Requested convergence on RMS density matrix=1.00D-08 within 128 cycles.
 Requested convergence on MAX density matrix=1.00D-06.
 Requested convergence on             energy=1.00D-06.
 No special actions if energy rises.
 Restarting incremental Fock formation.
 SCF Done:  E(UB3LYP) =  -1933.80843027     A.U. after   25 cycles
             Convg  =    0.4070D-08             -V/T =  2.0070
 <Sx>= 0.0000 <Sy>= 0.0000 <Sz>= 0.5000 <S**2>= 0.7605 S= 0.5052
 <L.S>= 0.000000000000E+00
 Annihilation of the first spin contaminant:
 S**2 before annihilation     0.7605,   after     0.7501

 **********************************************************************

            Population analysis using the SCF density.

 **********************************************************************

 Alpha  occ. eigenvalues --  -89.07627 -89.07627 -19.28104 -19.28104 -14.51776
 Alpha  occ. eigenvalues --  -14.51776 -14.48756 -14.48756 -10.44218 -10.44217
 Alpha  occ. eigenvalues --  -10.41614 -10.41614 -10.37294 -10.37294 -10.36309
 Alpha  occ. eigenvalues --  -10.36309 -10.35717 -10.35717 -10.35077 -10.35032
 Alpha  occ. eigenvalues --  -10.34594 -10.34594 -10.34383 -10.34383 -10.34305
 Alpha  occ. eigenvalues --  -10.34305 -10.32769 -10.32769  -8.13174  -8.13173
 Alpha  occ. eigenvalues --   -6.09669  -6.09669  -6.09145  -6.09145  -6.08938
 Alpha  occ. eigenvalues --   -6.08938  -1.19037  -1.18497  -1.12083  -1.10821
 Alpha  occ. eigenvalues --   -1.09896  -1.09478  -0.99030  -0.98985  -0.95395
 Alpha  occ. eigenvalues --   -0.94662  -0.94434  -0.90557  -0.89080  -0.88088
 Alpha  occ. eigenvalues --   -0.88027  -0.85400  -0.82484  -0.81347  -0.77236
 Alpha  occ. eigenvalues --   -0.75877  -0.74190  -0.73076  -0.72589  -0.72410
 Alpha  occ. eigenvalues --   -0.70263  -0.67639  -0.66690  -0.65762  -0.63535
 Alpha  occ. eigenvalues --   -0.62233  -0.61894  -0.60999  -0.60940  -0.60786
 Alpha  occ. eigenvalues --   -0.60317  -0.59678  -0.58365  -0.57120  -0.56948
 Alpha  occ. eigenvalues --   -0.56879  -0.56430  -0.55696  -0.55636  -0.55448
 Alpha  occ. eigenvalues --   -0.53158  -0.51060  -0.51041  -0.50928  -0.50383
 Alpha  occ. eigenvalues --   -0.50142  -0.49654  -0.48383  -0.48324  -0.47413
 Alpha  occ. eigenvalues --   -0.47214  -0.43760  -0.43389  -0.43202  -0.43187
 Alpha  occ. eigenvalues --   -0.41601  -0.40959  -0.40069  -0.38765  -0.38624
 Alpha  occ. eigenvalues --   -0.37764  -0.36759  -0.33432
 Alpha virt. eigenvalues --   -0.24444  -0.20876  -0.18894  -0.15100  -0.11870
 Alpha virt. eigenvalues --   -0.11844  -0.11471  -0.11463  -0.11363  -0.10276
 Alpha virt. eigenvalues --   -0.09647  -0.08817  -0.08156  -0.07508  -0.06961
 Alpha virt. eigenvalues --   -0.06287  -0.06081  -0.05872  -0.05833  -0.05269
 Alpha virt. eigenvalues --   -0.04942  -0.04597  -0.04549  -0.04005  -0.03228
 Alpha virt. eigenvalues --   -0.02926  -0.02872  -0.02515  -0.02205  -0.01981
 Alpha virt. eigenvalues --   -0.01482  -0.01458  -0.01214  -0.00921  -0.00671
 Alpha virt. eigenvalues --   -0.00508   0.00444   0.00754   0.00918   0.00956
 Alpha virt. eigenvalues --    0.01105   0.02189   0.02423   0.02474   0.02574
 Alpha virt. eigenvalues --    0.03359   0.03421   0.03691   0.04104   0.04309
 Alpha virt. eigenvalues --    0.04621   0.04845   0.05259   0.05349   0.05613
 Alpha virt. eigenvalues --    0.05667   0.05870   0.06144   0.06769   0.06845
 Alpha virt. eigenvalues --    0.07010   0.07124   0.07704   0.07713   0.08314
 Alpha virt. eigenvalues --    0.08367   0.08482   0.08561   0.08911   0.09145
 Alpha virt. eigenvalues --    0.09710   0.09997   0.10057   0.10267   0.10473
 Alpha virt. eigenvalues --    0.10720   0.11036   0.11488   0.12068   0.12095
 Alpha virt. eigenvalues --    0.12171   0.12407   0.12938   0.13005   0.13156
 Alpha virt. eigenvalues --    0.13340   0.13733   0.14011   0.14077   0.14414
 Alpha virt. eigenvalues --    0.14936   0.14944   0.15581   0.15607   0.15749
 Alpha virt. eigenvalues --    0.16074   0.16452   0.16566   0.16714   0.17039
 Alpha virt. eigenvalues --    0.17287   0.17738   0.17860   0.18025   0.18291
 Alpha virt. eigenvalues --    0.18447   0.18549   0.19207   0.19676   0.19725
 Alpha virt. eigenvalues --    0.19920   0.20438   0.20443   0.21166   0.21205
 Alpha virt. eigenvalues --    0.21274   0.21485   0.22135   0.22298   0.22711
 Alpha virt. eigenvalues --    0.23196   0.23250   0.23439   0.23546   0.23872
 Alpha virt. eigenvalues --    0.24965   0.25624   0.26709   0.26891   0.27880
 Alpha virt. eigenvalues --    0.28410   0.28835   0.29574   0.30794   0.31069
 Alpha virt. eigenvalues --    0.31525   0.31909   0.33086   0.33622   0.34217
 Alpha virt. eigenvalues --    0.34582   0.35027   0.36485   0.37300   0.37996
 Alpha virt. eigenvalues --    0.38560   0.39249   0.39345   0.39705   0.39733
 Alpha virt. eigenvalues --    0.40589   0.40782   0.41341   0.41863   0.44604
 Alpha virt. eigenvalues --    0.44968   0.46501   0.47469   0.49323   0.50341
 Alpha virt. eigenvalues --    0.50433   0.51442   0.51838   0.51953   0.52850
 Alpha virt. eigenvalues --    0.53946   0.54481   0.55322   0.55398   0.55961
 Alpha virt. eigenvalues --    0.56572   0.56986   0.57778   0.58290   0.58527
 Alpha virt. eigenvalues --    0.59060   0.59126   0.60700   0.60782   0.61201
 Alpha virt. eigenvalues --    0.61723   0.61813   0.62463   0.62628   0.63524
 Alpha virt. eigenvalues --    0.64004   0.64172   0.64729   0.65628   0.65773
 Alpha virt. eigenvalues --    0.66877   0.67120   0.67292   0.67780   0.68430
 Alpha virt. eigenvalues --    0.68507   0.69171   0.69863   0.70883   0.71816
 Alpha virt. eigenvalues --    0.72097   0.73185   0.74899   0.74956   0.75199
 Alpha virt. eigenvalues --    0.75387   0.76891   0.78289   0.78563   0.81055
 Alpha virt. eigenvalues --    0.81063   0.81329   0.83789   0.84050   0.84952
 Alpha virt. eigenvalues --    0.85203   0.85227   0.86943   0.87005   0.87977
 Alpha virt. eigenvalues --    0.89296   0.89639   0.91584   0.92122   0.92227
 Alpha virt. eigenvalues --    0.92455   0.92823   0.93004   0.94691   0.95770
 Alpha virt. eigenvalues --    0.96430   0.98115   0.98456   0.98689   0.99635
 Alpha virt. eigenvalues --    0.99937   1.01777   1.03123   1.04630   1.05440
 Alpha virt. eigenvalues --    1.06534   1.07010   1.07249   1.07939   1.08075
 Alpha virt. eigenvalues --    1.08601   1.08793   1.10043   1.10640   1.10886
 Alpha virt. eigenvalues --    1.10980   1.13180   1.13471   1.13644   1.14334
 Alpha virt. eigenvalues --    1.14371   1.14461   1.15802   1.16769   1.17181
 Alpha virt. eigenvalues --    1.17416   1.18018   1.18022   1.18633   1.18914
 Alpha virt. eigenvalues --    1.19453   1.20282   1.21696   1.22517   1.22851
 Alpha virt. eigenvalues --    1.22995   1.23741   1.24681   1.24754   1.24786
 Alpha virt. eigenvalues --    1.24929   1.25129   1.25915   1.26246   1.26760
 Alpha virt. eigenvalues --    1.27704   1.27748   1.28648   1.29118   1.29996
 Alpha virt. eigenvalues --    1.32225   1.32966   1.36166   1.37151   1.37985
 Alpha virt. eigenvalues --    1.39386   1.41280   1.42028   1.45764   1.46005
 Alpha virt. eigenvalues --    1.50185   1.50782   1.51367   1.52040   1.54040
 Alpha virt. eigenvalues --    1.54067   1.57855   1.58139   1.59136   1.60846
 Alpha virt. eigenvalues --    1.60989   1.61752   1.62299   1.62964   1.65338
 Alpha virt. eigenvalues --    1.66963   1.67854   1.67974   1.68829   1.69042
 Alpha virt. eigenvalues --    1.70366   1.71692   1.71877   1.73682   1.73962
 Alpha virt. eigenvalues --    1.74165   1.76184   1.77054   1.77148   1.78225
 Alpha virt. eigenvalues --    1.79093   1.80208   1.81589   1.82834   1.83206
 Alpha virt. eigenvalues --    1.83225   1.83557   1.84550   1.84759   1.84783
 Alpha virt. eigenvalues --    1.86111   1.86535   1.86656   1.89207   1.89775
 Alpha virt. eigenvalues --    1.92119   1.93029   1.93214   1.94362   1.96311
 Alpha virt. eigenvalues --    1.97087   1.97428   2.00937   2.00991   2.02189
 Alpha virt. eigenvalues --    2.02264   2.04325   2.05428   2.05513   2.05621
 Alpha virt. eigenvalues --    2.07460   2.10114   2.12322   2.13143   2.13729
 Alpha virt. eigenvalues --    2.14389   2.15913   2.16640   2.16763   2.19152
 Alpha virt. eigenvalues --    2.19607   2.20354   2.20893   2.25286   2.26146
 Alpha virt. eigenvalues --    2.26281   2.28013   2.28131   2.29236   2.29285
 Alpha virt. eigenvalues --    2.29303   2.30597   2.32264   2.33581   2.34810
 Alpha virt. eigenvalues --    2.35083   2.35659   2.36473   2.36570   2.37036
 Alpha virt. eigenvalues --    2.37231   2.37917   2.38043   2.40486   2.42430
 Alpha virt. eigenvalues --    2.42475   2.44402   2.46053   2.47718   2.47907
 Alpha virt. eigenvalues --    2.49062   2.49182   2.49771   2.50960   2.51454
 Alpha virt. eigenvalues --    2.51667   2.53192   2.53580   2.56258   2.56709
 Alpha virt. eigenvalues --    2.58300   2.59759   2.60447   2.60813   2.62853
 Alpha virt. eigenvalues --    2.63018   2.66193   2.67443   2.68789   2.71035
 Alpha virt. eigenvalues --    2.73035   2.73497   2.75144   2.76685   2.80082
 Alpha virt. eigenvalues --    2.80649   2.84941   2.88188   2.89042   2.89629
 Alpha virt. eigenvalues --    2.92129   2.92668   2.96245   2.96261   2.99009
 Alpha virt. eigenvalues --    3.02874   3.09411   3.09514   3.11040   3.15385
 Alpha virt. eigenvalues --    3.16868   3.17709   3.17927   3.18659   3.27070
 Alpha virt. eigenvalues --    3.32368   3.32984   3.33192   3.36853   3.38629
 Alpha virt. eigenvalues --    3.47968   3.48986   3.67377   3.67533   3.86874
 Alpha virt. eigenvalues --    3.86879   4.05314   4.06725   4.14926   4.16929
 Alpha virt. eigenvalues --    4.18451   4.19916   4.21830   4.21839   4.24074
 Alpha virt. eigenvalues --    4.24429   4.26517   4.27010   4.29628   4.33008
 Alpha virt. eigenvalues --    4.36537   4.39177   4.40594   4.45248   4.46775
 Alpha virt. eigenvalues --    4.49323   4.57566   4.65012   4.75176   4.75818
 Alpha virt. eigenvalues --    4.92319   4.99889
  Beta  occ. eigenvalues --  -89.07635 -89.07635 -19.27750 -19.27750 -14.51764
  Beta  occ. eigenvalues --  -14.51764 -14.48723 -14.48723 -10.44248 -10.44248
  Beta  occ. eigenvalues --  -10.41500 -10.41500 -10.37287 -10.37287 -10.36254
  Beta  occ. eigenvalues --  -10.36254 -10.35716 -10.35716 -10.34853 -10.34806
  Beta  occ. eigenvalues --  -10.34467 -10.34467 -10.34330 -10.34330 -10.34279
  Beta  occ. eigenvalues --  -10.34279 -10.32808 -10.32807  -8.13181  -8.13181
  Beta  occ. eigenvalues --   -6.09675  -6.09675  -6.09151  -6.09151  -6.08959
  Beta  occ. eigenvalues --   -6.08959  -1.18551  -1.17973  -1.11707  -1.10663
  Beta  occ. eigenvalues --   -1.09820  -1.09346  -0.98867  -0.98833  -0.95005
  Beta  occ. eigenvalues --   -0.94504  -0.94295  -0.90257  -0.88939  -0.88053
  Beta  occ. eigenvalues --   -0.87993  -0.84912  -0.82177  -0.81178  -0.77035
  Beta  occ. eigenvalues --   -0.75777  -0.74098  -0.72998  -0.72500  -0.72316
  Beta  occ. eigenvalues --   -0.70116  -0.67533  -0.66562  -0.65696  -0.63384
  Beta  occ. eigenvalues --   -0.62122  -0.61795  -0.60830  -0.60712  -0.60182
  Beta  occ. eigenvalues --   -0.60081  -0.59596  -0.58262  -0.56885  -0.56576
  Beta  occ. eigenvalues --   -0.56567  -0.56350  -0.55652  -0.55428  -0.54965
  Beta  occ. eigenvalues --   -0.52929  -0.51015  -0.50891  -0.50324  -0.50095
  Beta  occ. eigenvalues --   -0.50080  -0.48709  -0.48368  -0.48305  -0.46614
  Beta  occ. eigenvalues --   -0.46480  -0.43332  -0.43131  -0.42972  -0.42640
  Beta  occ. eigenvalues --   -0.41266  -0.40046  -0.39719  -0.38600  -0.38498
  Beta  occ. eigenvalues --   -0.36769  -0.36040
  Beta virt. eigenvalues --   -0.28737  -0.23092  -0.20206  -0.18300  -0.14442
  Beta virt. eigenvalues --   -0.11594  -0.11589  -0.11456  -0.11447  -0.10897
  Beta virt. eigenvalues --   -0.09707  -0.09610  -0.08805  -0.08128  -0.07491
  Beta virt. eigenvalues --   -0.06951  -0.06268  -0.06073  -0.05866  -0.05792
  Beta virt. eigenvalues --   -0.05239  -0.04921  -0.04529  -0.04044  -0.03961
  Beta virt. eigenvalues --   -0.03209  -0.02850  -0.02709  -0.02246  -0.02192
  Beta virt. eigenvalues --   -0.01504  -0.01448  -0.01441  -0.01198  -0.00840
  Beta virt. eigenvalues --   -0.00474  -0.00225   0.00544   0.00783   0.00973
  Beta virt. eigenvalues --    0.01113   0.01123   0.02218   0.02437   0.02504
  Beta virt. eigenvalues --    0.02761   0.03388   0.03509   0.03802   0.04161
  Beta virt. eigenvalues --    0.04324   0.04856   0.04938   0.05410   0.05445
  Beta virt. eigenvalues --    0.05726   0.05784   0.06029   0.06194   0.06817
  Beta virt. eigenvalues --    0.06930   0.07045   0.07197   0.07726   0.07731
  Beta virt. eigenvalues --    0.08333   0.08436   0.08584   0.08593   0.08958
  Beta virt. eigenvalues --    0.09207   0.09763   0.10112   0.10114   0.10311
  Beta virt. eigenvalues --    0.10543   0.10739   0.11131   0.11555   0.12154
  Beta virt. eigenvalues --    0.12159   0.12196   0.12433   0.12985   0.13128
  Beta virt. eigenvalues --    0.13198   0.13362   0.13759   0.14023   0.14126
  Beta virt. eigenvalues --    0.14534   0.14986   0.14998   0.15639   0.15738
  Beta virt. eigenvalues --    0.15800   0.16126   0.16478   0.16697   0.16781
  Beta virt. eigenvalues --    0.17162   0.17339   0.17808   0.17902   0.18077
  Beta virt. eigenvalues --    0.18332   0.18479   0.18593   0.19268   0.19717
  Beta virt. eigenvalues --    0.19763   0.19976   0.20475   0.20479   0.21206
  Beta virt. eigenvalues --    0.21285   0.21353   0.21573   0.22180   0.22383
  Beta virt. eigenvalues --    0.22798   0.23376   0.23482   0.23495   0.23649
  Beta virt. eigenvalues --    0.23922   0.25019   0.25659   0.26790   0.27036
  Beta virt. eigenvalues --    0.27908   0.28484   0.28894   0.29666   0.30824
  Beta virt. eigenvalues --    0.31130   0.31577   0.31951   0.33154   0.33690
  Beta virt. eigenvalues --    0.34251   0.34634   0.35068   0.36578   0.37373
  Beta virt. eigenvalues --    0.38060   0.38598   0.39224   0.39392   0.39704
  Beta virt. eigenvalues --    0.39800   0.40640   0.40819   0.41390   0.41911
  Beta virt. eigenvalues --    0.44665   0.45036   0.46655   0.47566   0.49412
  Beta virt. eigenvalues --    0.50370   0.50604   0.51497   0.51993   0.52106
  Beta virt. eigenvalues --    0.52936   0.53966   0.54593   0.55414   0.55621
  Beta virt. eigenvalues --    0.56120   0.56801   0.57033   0.58302   0.58441
  Beta virt. eigenvalues --    0.58750   0.59141   0.59228   0.60849   0.60859
  Beta virt. eigenvalues --    0.61270   0.61966   0.62116   0.62540   0.62686
  Beta virt. eigenvalues --    0.63770   0.64084   0.64240   0.64994   0.65646
  Beta virt. eigenvalues --    0.65822   0.66915   0.67299   0.67451   0.67828
  Beta virt. eigenvalues --    0.68465   0.68771   0.69339   0.70662   0.70984
  Beta virt. eigenvalues --    0.71864   0.72167   0.73383   0.74973   0.74999
  Beta virt. eigenvalues --    0.75252   0.75436   0.77058   0.78314   0.78591
  Beta virt. eigenvalues --    0.81079   0.81114   0.81373   0.83792   0.84070
  Beta virt. eigenvalues --    0.85095   0.85254   0.85290   0.86980   0.87039
  Beta virt. eigenvalues --    0.88068   0.89336   0.89698   0.91668   0.92236
  Beta virt. eigenvalues --    0.92272   0.92565   0.92859   0.93059   0.94734
  Beta virt. eigenvalues --    0.95809   0.96469   0.98175   0.98547   0.98778
  Beta virt. eigenvalues --    0.99674   1.00007   1.01882   1.03157   1.04742
  Beta virt. eigenvalues --    1.05581   1.06622   1.07111   1.07687   1.08014
  Beta virt. eigenvalues --    1.08163   1.08668   1.09012   1.10311   1.10984
  Beta virt. eigenvalues --    1.11040   1.11366   1.13202   1.13616   1.14263
  Beta virt. eigenvalues --    1.14392   1.14648   1.15040   1.16275   1.16861
  Beta virt. eigenvalues --    1.17476   1.17589   1.18161   1.18345   1.18774
  Beta virt. eigenvalues --    1.18968   1.19466   1.20420   1.21812   1.22904
  Beta virt. eigenvalues --    1.23001   1.23075   1.23908   1.24806   1.24829
  Beta virt. eigenvalues --    1.24899   1.25121   1.25476   1.26052   1.26455
  Beta virt. eigenvalues --    1.27059   1.27923   1.28003   1.29119   1.29296
  Beta virt. eigenvalues --    1.30068   1.32360   1.33101   1.36326   1.37233
  Beta virt. eigenvalues --    1.38126   1.39564   1.41397   1.42206   1.45927
  Beta virt. eigenvalues --    1.46205   1.50411   1.50876   1.51495   1.52342
  Beta virt. eigenvalues --    1.54228   1.54254   1.58219   1.58239   1.59197
  Beta virt. eigenvalues --    1.60926   1.61073   1.62243   1.62971   1.63040
  Beta virt. eigenvalues --    1.65475   1.67133   1.68054   1.68124   1.69201
  Beta virt. eigenvalues --    1.69351   1.70489   1.71767   1.72137   1.73764
  Beta virt. eigenvalues --    1.74048   1.74355   1.76283   1.77170   1.77483
  Beta virt. eigenvalues --    1.78372   1.79275   1.80387   1.81875   1.82910
  Beta virt. eigenvalues --    1.83322   1.83404   1.83684   1.84702   1.84891
  Beta virt. eigenvalues --    1.85019   1.86255   1.86747   1.86853   1.89614
  Beta virt. eigenvalues --    1.89992   1.92435   1.93283   1.93453   1.94494
  Beta virt. eigenvalues --    1.96444   1.97410   1.97916   2.01101   2.01686
  Beta virt. eigenvalues --    2.02317   2.02349   2.04505   2.05523   2.05734
  Beta virt. eigenvalues --    2.05880   2.07607   2.10435   2.12551   2.13325
  Beta virt. eigenvalues --    2.13888   2.14569   2.16222   2.16735   2.16998
  Beta virt. eigenvalues --    2.19357   2.20061   2.20459   2.21086   2.25455
  Beta virt. eigenvalues --    2.26214   2.26349   2.28115   2.28250   2.29336
  Beta virt. eigenvalues --    2.29412   2.29563   2.30766   2.32508   2.33828
  Beta virt. eigenvalues --    2.34955   2.35114   2.35692   2.36615   2.36755
  Beta virt. eigenvalues --    2.37069   2.37266   2.38093   2.38295   2.40721
  Beta virt. eigenvalues --    2.42588   2.42600   2.44721   2.46205   2.47748
  Beta virt. eigenvalues --    2.47929   2.49152   2.49354   2.49991   2.51048
  Beta virt. eigenvalues --    2.51643   2.51699   2.53461   2.53630   2.56445
  Beta virt. eigenvalues --    2.56808   2.58470   2.59840   2.60630   2.60945
  Beta virt. eigenvalues --    2.63003   2.63499   2.66331   2.67771   2.68912
  Beta virt. eigenvalues --    2.71107   2.73082   2.73530   2.75214   2.76911
  Beta virt. eigenvalues --    2.80164   2.81181   2.85045   2.88257   2.89129
  Beta virt. eigenvalues --    2.89804   2.92258   2.92712   2.96334   2.96359
  Beta virt. eigenvalues --    2.99111   3.02989   3.09490   3.09598   3.11168
  Beta virt. eigenvalues --    3.15513   3.16983   3.17739   3.17955   3.18773
  Beta virt. eigenvalues --    3.27132   3.32422   3.33035   3.33268   3.36886
  Beta virt. eigenvalues --    3.38699   3.48005   3.49008   3.67425   3.67581
  Beta virt. eigenvalues --    3.86875   3.86878   4.05374   4.06799   4.15007
  Beta virt. eigenvalues --    4.17033   4.18582   4.20061   4.21900   4.21928
  Beta virt. eigenvalues --    4.24205   4.24536   4.26717   4.27228   4.29959
  Beta virt. eigenvalues --    4.33216   4.36660   4.39273   4.40720   4.45343
  Beta virt. eigenvalues --    4.46887   4.49466   4.57785   4.65370   4.75299
  Beta virt. eigenvalues --    4.75964   4.92601   5.00189
          Condensed to atoms (all electrons):
              1          2          3          4          5          6
     1  N    7.378736   0.318051  -0.068162  -0.076053  -0.331202  -0.016621
     2  C    0.318051   9.059201  -1.187678  -0.927476  -2.382903  -0.105681
     3  C   -0.068162  -1.187678   8.573245  -0.650533  -0.604465   0.800296
     4  C   -0.076053  -0.927476  -0.650533  10.888835   0.585575  -0.604469
     5  C   -0.331202  -2.382903  -0.604465   0.585575  10.888840  -0.650533
     6  C   -0.016621  -0.105681   0.800296  -0.604469  -0.650533   8.573241
     7  C    0.030091   1.095430  -0.105681  -2.382897  -0.927475  -1.187669
     8  N   -0.000479   0.030091  -0.016621  -0.331201  -0.076053  -0.068162
     9  O   -0.043322   0.178102  -0.017277   0.004508   0.191085   0.004799
    10  O   -0.004489  -0.019441   0.004798   0.191085   0.004508  -0.017277
    11  H    0.000072   0.007096  -0.002897  -0.024295   0.052388  -0.015473
    12  H    0.291936   0.009671  -0.015474   0.052388  -0.024294  -0.002897
    13  C    0.015054   0.027967  -0.132196   0.032611   0.637113  -1.261773
    14  C   -0.002506   0.019635  -0.122817   0.246531   0.186587   0.141099
    15  C    0.001171  -0.067247   0.020611  -0.067648   0.139877   0.049432
    16  H    0.000000  -0.000241   0.000005  -0.000046   0.001123   0.000561
    17  C    0.016978   0.092280  -0.040161   0.044711   0.202986  -1.002657
    18  H   -0.000002  -0.001626   0.000050  -0.000147   0.000003  -0.003252
    19  C    0.074023  -0.113279   0.281370   0.027781  -2.441063   0.208199
    20  H    0.002845   0.039882   0.010329  -0.007312   0.046679  -0.055618
    21  C   -0.090900  -0.297563   0.046289   0.233780   0.310872   0.374208
    22  C    0.000226   0.040046   0.002330   0.000881  -0.149432  -0.055722
    23  H    0.000000  -0.000018   0.000003  -0.000013  -0.000036  -0.001460
    24  S   -0.000036  -0.009802   0.000308   0.005550   0.012799   0.061188
    25  N   -0.001246  -0.000506   0.021065  -0.077194  -0.000260   0.085830
    26  C    0.059547   0.190454  -1.261773   0.637115   0.032614  -0.132197
    27  C    0.120618   0.009082   0.141093   0.186585   0.246532  -0.122817
    28  C   -0.000831  -0.052793   0.049433   0.139877  -0.067648   0.020611
    29  H    0.000018   0.000042   0.000561   0.001123  -0.000046   0.000005
    30  C    0.106624   0.067964  -1.002658   0.202987   0.044711  -0.040160
    31  H    0.000010  -0.000075  -0.003252   0.000003  -0.000147   0.000050
    32  C   -0.253734  -0.306890   0.208198  -2.441055   0.027780   0.281368
    33  H    0.002431   0.002040  -0.055618   0.046679  -0.007312   0.010329
    34  C   -0.102881  -0.398648   0.374215   0.310872   0.233777   0.046289
    35  C   -0.013837   0.069908  -0.055721  -0.149432   0.000881   0.002330
    36  H   -0.000077  -0.000038  -0.001460  -0.000036  -0.000013   0.000003
    37  S   -0.018176  -0.053383   0.061188   0.012799   0.005550   0.000308
    38  N    0.047807   0.015431   0.085830  -0.000261  -0.077194   0.021065
              7          8          9         10         11         12
     1  N    0.030091  -0.000479  -0.043322  -0.004489   0.000072   0.291936
     2  C    1.095430   0.030091   0.178102  -0.019441   0.007096   0.009671
     3  C   -0.105681  -0.016621  -0.017277   0.004798  -0.002897  -0.015474
     4  C   -2.382897  -0.331201   0.004508   0.191085  -0.024295   0.052388
     5  C   -0.927475  -0.076053   0.191085   0.004508   0.052388  -0.024294
     6  C   -1.187669  -0.068162   0.004799  -0.017277  -0.015473  -0.002897
     7  C    9.059188   0.318050  -0.019441   0.178102   0.009671   0.007096
     8  N    0.318050   7.378736  -0.004489  -0.043322   0.291936   0.000072
     9  O   -0.019441  -0.004489   8.303070   0.000016   0.000020  -0.002496
    10  O    0.178102  -0.043322   0.000016   8.303070  -0.002496   0.000020
    11  H    0.009671   0.291936   0.000020  -0.002496   0.329416   0.000000
    12  H    0.007096   0.000072  -0.002496   0.000020   0.000000   0.329416
    13  C    0.190454   0.059548   0.001933   0.001668   0.032774   0.000427
    14  C    0.009082   0.120618  -0.003074   0.001263   0.025654   0.000003
    15  C   -0.052793  -0.000831  -0.007347   0.000095   0.000838  -0.000002
    16  H    0.000042   0.000018   0.000007   0.000000   0.000000   0.000000
    17  C    0.067964   0.106624  -0.104163   0.000681   0.000836   0.000564
    18  H   -0.000075   0.000010   0.000223   0.000000   0.000000   0.000000
    19  C   -0.306892  -0.253734  -0.159802  -0.005819  -0.034272   0.001784
    20  H    0.002040   0.002431  -0.001303   0.000011   0.000006  -0.000002
    21  C   -0.398648  -0.102881   0.114247   0.014400  -0.078435  -0.001609
    22  C    0.069908  -0.013837  -0.000592  -0.000306   0.007636  -0.000001
    23  H   -0.000038  -0.000077   0.000000   0.000000  -0.000001   0.000000
    24  S   -0.053382  -0.018176   0.000105  -0.000329  -0.007936   0.000001
    25  N    0.015431   0.047807   0.000509  -0.005533   0.037827  -0.000002
    26  C    0.027966   0.015054   0.001668   0.001933   0.000427   0.032774
    27  C    0.019635  -0.002506   0.001263  -0.003074   0.000003   0.025654
    28  C   -0.067247   0.001171   0.000095  -0.007347  -0.000002   0.000838
    29  H   -0.000241   0.000000   0.000000   0.000007   0.000000   0.000000
    30  C    0.092279   0.016978   0.000681  -0.104164   0.000564   0.000836
    31  H   -0.001626  -0.000002   0.000000   0.000223   0.000000   0.000000
    32  C   -0.113278   0.074022  -0.005819  -0.159802   0.001784  -0.034271
    33  H    0.039882   0.002845   0.000011  -0.001304  -0.000002   0.000006
    34  C   -0.297565  -0.090900   0.014400   0.114248  -0.001609  -0.078435
    35  C    0.040046   0.000226  -0.000306  -0.000592  -0.000001   0.007636
    36  H   -0.000018   0.000000   0.000000   0.000000   0.000000  -0.000001
    37  S   -0.009802  -0.000036  -0.000329   0.000105   0.000001  -0.007937
    38  N   -0.000506  -0.001246  -0.005533   0.000509  -0.000002   0.037827
             13         14         15         16         17         18
     1  N    0.015054  -0.002506   0.001171   0.000000   0.016978  -0.000002
     2  C    0.027967   0.019635  -0.067247  -0.000241   0.092280  -0.001626
     3  C   -0.132196  -0.122817   0.020611   0.000005  -0.040161   0.000050
     4  C    0.032611   0.246531  -0.067648  -0.000046   0.044711  -0.000147
     5  C    0.637113   0.186587   0.139877   0.001123   0.202986   0.000003
     6  C   -1.261773   0.141099   0.049432   0.000561  -1.002657  -0.003252
     7  C    0.190454   0.009082  -0.052793   0.000042   0.067964  -0.000075
     8  N    0.059548   0.120618  -0.000831   0.000018   0.106624   0.000010
     9  O    0.001933  -0.003074  -0.007347   0.000007  -0.104163   0.000223
    10  O    0.001668   0.001263   0.000095   0.000000   0.000681   0.000000
    11  H    0.032774   0.025654   0.000838   0.000000   0.000836   0.000000
    12  H    0.000427   0.000003  -0.000002   0.000000   0.000564   0.000000
    13  C    9.178299  -2.175355   0.210522   0.026888  -0.909483   0.006942
    14  C   -2.175355  14.661190  -2.781024   0.036864   1.546182   0.013605
    15  C    0.210522  -2.781024   9.937759   0.271626   0.124267   0.020903
    16  H    0.026888   0.036864   0.271626   0.521618  -0.032978  -0.003676
    17  C   -0.909483   1.546182   0.124267  -0.032978  10.751484   0.338021
    18  H    0.006942   0.013605   0.020903  -0.003676   0.338021   0.515296
    19  C    1.139319  -2.637302  -1.379136   0.057272  -4.704222  -0.059801
    20  H    0.046803   0.005598   0.000129  -0.000143   0.118165  -0.004659
    21  C   -0.367409  -2.176938   1.233679   0.019227  -0.391275   0.013024
    22  C   -0.086261  -2.555907  -1.030663  -0.070251   0.117245  -0.004433
    23  H    0.056522   0.103727  -0.030944   0.001273  -0.003470  -0.000003
    24  S   -0.014186   0.166331  -0.013927  -0.000397  -0.015383   0.000438
    25  N    0.110249   0.401959  -0.045013  -0.001025  -0.016874   0.000321
    26  C    0.038392   0.006215  -0.000603   0.000000   0.012523  -0.000001
    27  C    0.006215   0.000960  -0.000142   0.000000   0.001685   0.000000
    28  C   -0.000603  -0.000142  -0.000004   0.000000  -0.000088   0.000000
    29  H    0.000000   0.000000   0.000000   0.000000   0.000000   0.000000
    30  C    0.012523   0.001685  -0.000088   0.000000   0.001383   0.000000
    31  H   -0.000001   0.000000   0.000000   0.000000   0.000000   0.000000
    32  C   -0.067041  -0.006051   0.000249   0.000000  -0.007019   0.000002
    33  H    0.000655   0.000035   0.000004   0.000000  -0.000016   0.000000
    34  C   -0.045332  -0.001368   0.000649   0.000000  -0.022632   0.000004
    35  C   -0.000639  -0.000030   0.000009   0.000000  -0.000049   0.000000
    36  H    0.000000   0.000000   0.000000   0.000000   0.000000   0.000000
    37  S    0.000233   0.000013  -0.000002   0.000000   0.000151   0.000000
    38  N   -0.000945  -0.000207   0.000035   0.000000   0.000234   0.000000
             19         20         21         22         23         24
     1  N    0.074023   0.002845  -0.090900   0.000226   0.000000  -0.000036
     2  C   -0.113279   0.039882  -0.297563   0.040046  -0.000018  -0.009802
     3  C    0.281370   0.010329   0.046289   0.002330   0.000003   0.000308
     4  C    0.027781  -0.007312   0.233780   0.000881  -0.000013   0.005550
     5  C   -2.441063   0.046679   0.310872  -0.149432  -0.000036   0.012799
     6  C    0.208199  -0.055618   0.374208  -0.055722  -0.001460   0.061188
     7  C   -0.306892   0.002040  -0.398648   0.069908  -0.000038  -0.053382
     8  N   -0.253734   0.002431  -0.102881  -0.013837  -0.000077  -0.018176
     9  O   -0.159802  -0.001303   0.114247  -0.000592   0.000000   0.000105
    10  O   -0.005819   0.000011   0.014400  -0.000306   0.000000  -0.000329
    11  H   -0.034272   0.000006  -0.078435   0.007636  -0.000001  -0.007936
    12  H    0.001784  -0.000002  -0.001609  -0.000001   0.000000   0.000001
    13  C    1.139319   0.046803  -0.367409  -0.086261   0.056522  -0.014186
    14  C   -2.637302   0.005598  -2.176938  -2.555907   0.103727   0.166331
    15  C   -1.379136   0.000129   1.233679  -1.030663  -0.030944  -0.013927
    16  H    0.057272  -0.000143   0.019227  -0.070251   0.001273  -0.000397
    17  C   -4.704222   0.118165  -0.391275   0.117245  -0.003470  -0.015383
    18  H   -0.059801  -0.004659   0.013024  -0.004433  -0.000003   0.000438
    19  C   18.830996   0.123421  -2.996214   0.954805   0.000487  -0.029973
    20  H    0.123421   0.513801  -0.020861  -0.000638   0.000000   0.000254
    21  C   -2.996214  -0.020861  11.092510  -0.759772   0.002054   0.039420
    22  C    0.954805  -0.000638  -0.759772  10.521269   0.154842  -0.597734
    23  H    0.000487   0.000000   0.002054   0.154842   0.474495   0.026953
    24  S   -0.029973   0.000254   0.039420  -0.597734   0.026953  15.704664
    25  N   -0.054632  -0.001921  -0.182434  -0.564161   0.010180   0.029709
    26  C   -0.067041   0.000655  -0.045332  -0.000639   0.000000   0.000233
    27  C   -0.006051   0.000035  -0.001368  -0.000030   0.000000   0.000013
    28  C    0.000249   0.000004   0.000649   0.000009   0.000000  -0.000002
    29  H    0.000000   0.000000   0.000000   0.000000   0.000000   0.000000
    30  C   -0.007019  -0.000016  -0.022632  -0.000049   0.000000   0.000151
    31  H    0.000002   0.000000   0.000004   0.000000   0.000000   0.000000
    32  C    0.084094  -0.001097   0.177636   0.001243   0.000000   0.000127
    33  H   -0.001097   0.000000  -0.004449  -0.000008   0.000000   0.000008
    34  C    0.177636  -0.004449   0.037258   0.001422   0.000000  -0.000354
    35  C    0.001243  -0.000008   0.001422   0.000002   0.000000  -0.000001
    36  H    0.000000   0.000000   0.000000   0.000000   0.000000   0.000000
    37  S    0.000127   0.000008  -0.000354  -0.000001   0.000000   0.000001
    38  N    0.005945   0.000023  -0.004452   0.000010   0.000000  -0.000003
             25         26         27         28         29         30
     1  N   -0.001246   0.059547   0.120618  -0.000831   0.000018   0.106624
     2  C   -0.000506   0.190454   0.009082  -0.052793   0.000042   0.067964
     3  C    0.021065  -1.261773   0.141093   0.049433   0.000561  -1.002658
     4  C   -0.077194   0.637115   0.186585   0.139877   0.001123   0.202987
     5  C   -0.000260   0.032614   0.246532  -0.067648  -0.000046   0.044711
     6  C    0.085830  -0.132197  -0.122817   0.020611   0.000005  -0.040160
     7  C    0.015431   0.027966   0.019635  -0.067247  -0.000241   0.092279
     8  N    0.047807   0.015054  -0.002506   0.001171   0.000000   0.016978
     9  O    0.000509   0.001668   0.001263   0.000095   0.000000   0.000681
    10  O   -0.005533   0.001933  -0.003074  -0.007347   0.000007  -0.104164
    11  H    0.037827   0.000427   0.000003  -0.000002   0.000000   0.000564
    12  H   -0.000002   0.032774   0.025654   0.000838   0.000000   0.000836
    13  C    0.110249   0.038392   0.006215  -0.000603   0.000000   0.012523
    14  C    0.401959   0.006215   0.000960  -0.000142   0.000000   0.001685
    15  C   -0.045013  -0.000603  -0.000142  -0.000004   0.000000  -0.000088
    16  H   -0.001025   0.000000   0.000000   0.000000   0.000000   0.000000
    17  C   -0.016874   0.012523   0.001685  -0.000088   0.000000   0.001383
    18  H    0.000321  -0.000001   0.000000   0.000000   0.000000   0.000000
    19  C   -0.054632  -0.067041  -0.006051   0.000249   0.000000  -0.007019
    20  H   -0.001921   0.000655   0.000035   0.000004   0.000000  -0.000016
    21  C   -0.182434  -0.045332  -0.001368   0.000649   0.000000  -0.022632
    22  C   -0.564161  -0.000639  -0.000030   0.000009   0.000000  -0.000049
    23  H    0.010180   0.000000   0.000000   0.000000   0.000000   0.000000
    24  S    0.029709   0.000233   0.000013  -0.000002   0.000000   0.000151
    25  N    7.530481  -0.000945  -0.000207   0.000035   0.000000   0.000234
    26  C   -0.000945   9.178307  -2.175364   0.210519   0.026888  -0.909484
    27  C   -0.000207  -2.175364  14.661206  -2.781030   0.036864   1.546177
    28  C    0.000035   0.210519  -2.781030   9.937768   0.271626   0.124275
    29  H    0.000000   0.026888   0.036864   0.271626   0.521618  -0.032978
    30  C    0.000234  -0.909484   1.546177   0.124275  -0.032978  10.751468
    31  H    0.000000   0.006942   0.013605   0.020903  -0.003676   0.338021
    32  C    0.005945   1.139319  -2.637287  -1.379151   0.057272  -4.704193
    33  H    0.000023   0.046803   0.005598   0.000129  -0.000143   0.118165
    34  C   -0.004452  -0.367408  -2.176947   1.233684   0.019227  -0.391284
    35  C    0.000010  -0.086251  -2.555904  -1.030665  -0.070251   0.117243
    36  H    0.000000   0.056522   0.103726  -0.030944   0.001273  -0.003470
    37  S   -0.000003  -0.014189   0.166332  -0.013926  -0.000397  -0.015382
    38  N    0.000012   0.110247   0.401960  -0.045012  -0.001025  -0.016875
             31         32         33         34         35         36
     1  N    0.000010  -0.253734   0.002431  -0.102881  -0.013837  -0.000077
     2  C   -0.000075  -0.306890   0.002040  -0.398648   0.069908  -0.000038
     3  C   -0.003252   0.208198  -0.055618   0.374215  -0.055721  -0.001460
     4  C    0.000003  -2.441055   0.046679   0.310872  -0.149432  -0.000036
     5  C   -0.000147   0.027780  -0.007312   0.233777   0.000881  -0.000013
     6  C    0.000050   0.281368   0.010329   0.046289   0.002330   0.000003
     7  C   -0.001626  -0.113278   0.039882  -0.297565   0.040046  -0.000018
     8  N   -0.000002   0.074022   0.002845  -0.090900   0.000226   0.000000
     9  O    0.000000  -0.005819   0.000011   0.014400  -0.000306   0.000000
    10  O    0.000223  -0.159802  -0.001304   0.114248  -0.000592   0.000000
    11  H    0.000000   0.001784  -0.000002  -0.001609  -0.000001   0.000000
    12  H    0.000000  -0.034271   0.000006  -0.078435   0.007636  -0.000001
    13  C   -0.000001  -0.067041   0.000655  -0.045332  -0.000639   0.000000
    14  C    0.000000  -0.006051   0.000035  -0.001368  -0.000030   0.000000
    15  C    0.000000   0.000249   0.000004   0.000649   0.000009   0.000000
    16  H    0.000000   0.000000   0.000000   0.000000   0.000000   0.000000
    17  C    0.000000  -0.007019  -0.000016  -0.022632  -0.000049   0.000000
    18  H    0.000000   0.000002   0.000000   0.000004   0.000000   0.000000
    19  C    0.000002   0.084094  -0.001097   0.177636   0.001243   0.000000
    20  H    0.000000  -0.001097   0.000000  -0.004449  -0.000008   0.000000
    21  C    0.000004   0.177636  -0.004449   0.037258   0.001422   0.000000
    22  C    0.000000   0.001243  -0.000008   0.001422   0.000002   0.000000
    23  H    0.000000   0.000000   0.000000   0.000000   0.000000   0.000000
    24  S    0.000000   0.000127   0.000008  -0.000354  -0.000001   0.000000
    25  N    0.000000   0.005945   0.000023  -0.004452   0.000010   0.000000
    26  C    0.006942   1.139319   0.046803  -0.367408  -0.086251   0.056522
    27  C    0.013605  -2.637287   0.005598  -2.176947  -2.555904   0.103726
    28  C    0.020903  -1.379151   0.000129   1.233684  -1.030665  -0.030944
    29  H   -0.003676   0.057272  -0.000143   0.019227  -0.070251   0.001273
    30  C    0.338021  -4.704193   0.118165  -0.391284   0.117243  -0.003470
    31  H    0.515296  -0.059801  -0.004659   0.013024  -0.004433  -0.000003
    32  C   -0.059801  18.830945   0.123421  -2.996203   0.954806   0.000487
    33  H   -0.004659   0.123421   0.513802  -0.020862  -0.000638   0.000000
    34  C    0.013024  -2.996203  -0.020862  11.092502  -0.759766   0.002054
    35  C   -0.004433   0.954806  -0.000638  -0.759766  10.521255   0.154843
    36  H   -0.000003   0.000487   0.000000   0.002054   0.154843   0.474495
    37  S    0.000438  -0.029973   0.000254   0.039419  -0.597733   0.026953
    38  N    0.000321  -0.054632  -0.001921  -0.182433  -0.564161   0.010180
             37         38
     1  N   -0.018176   0.047807
     2  C   -0.053383   0.015431
     3  C    0.061188   0.085830
     4  C    0.012799  -0.000261
     5  C    0.005550  -0.077194
     6  C    0.000308   0.021065
     7  C   -0.009802  -0.000506
     8  N   -0.000036  -0.001246
     9  O   -0.000329  -0.005533
    10  O    0.000105   0.000509
    11  H    0.000001  -0.000002
    12  H   -0.007937   0.037827
    13  C    0.000233  -0.000945
    14  C    0.000013  -0.000207
    15  C   -0.000002   0.000035
    16  H    0.000000   0.000000
    17  C    0.000151   0.000234
    18  H    0.000000   0.000000
    19  C    0.000127   0.005945
    20  H    0.000008   0.000023
    21  C   -0.000354  -0.004452
    22  C   -0.000001   0.000010
    23  H    0.000000   0.000000
    24  S    0.000001  -0.000003
    25  N   -0.000003   0.000012
    26  C   -0.014189   0.110247
    27  C    0.166332   0.401960
    28  C   -0.013926  -0.045012
    29  H   -0.000397  -0.001025
    30  C   -0.015382  -0.016875
    31  H    0.000438   0.000321
    32  C   -0.029973  -0.054632
    33  H    0.000254  -0.001921
    34  C    0.039419  -0.182433
    35  C   -0.597733  -0.564161
    36  H    0.026953   0.010180
    37  S   15.704665   0.029709
    38  N    0.029709   7.530481
 Mulliken atomic charges:
              1
     1  N   -0.441684
     2  C    0.652916
     3  C    0.663227
     4  C   -0.112206
     5  C   -0.112204
     6  C    0.663227
     7  C    0.652916
     8  N   -0.441684
     9  O   -0.441448
    10  O   -0.441448
    11  H    0.368472
    12  H    0.368472
    13  C   -0.771888
    14  C    0.767886
    15  C   -0.534440
    16  H    0.172237
    17  C   -0.294496
    18  H    0.168834
    19  C   -0.711404
    20  H    0.184908
    21  C    0.232850
    22  C    0.018561
    23  H    0.205523
    24  S    0.713369
    25  N   -0.341217
    26  C   -0.771890
    27  C    0.767887
    28  C   -0.534438
    29  H    0.172237
    30  C   -0.294497
    31  H    0.168834
[...]
 0006701,-0.00012487,0.00000515,-0.00025013,0.00000446,-0.00003362,-0.0
 0002147,0.00006634,-0.00021023,0.00002910,0.00007983,0.00000282,0.0004
 3928,-0.07989400,-0.01415332,-0.03424266,0.01098988,-0.00061838,0.0121
 9223,-0.00818162,-0.00713541,-0.01411246,-0.00078773,-0.00039488,0.000
 12013,-0.00093643,0.03321020,-0.00393457,0.00424812,0.00146228,-0.0016
 5613,-0.12806611,0.02183816,-0.11295150,0.00059748,0.00407417,-0.00633
 207,0.27967294,0.01816759,-0.02162342,0.02279910,0.00165177,0.01156335
 ,0.00530748,0.04084000,-0.25692860,0.00866006,0.00527078,-0.03427702,-
 0.00336522,-0.00462749,0.00609950,-0.00714530,0.00075887,-0.00118944,0
 .00064268,0.00324700,-0.00513466,0.00462628,-0.00091610,0.00169788,-0.
 00117730,-0.00048956,-0.00134020,-0.00124986,-0.00206452,0.00376554,-0
 .00262911,0.00010052,0.00032765,0.00029310,-0.00058489,-0.00443458,-0.
 00198020,0.00028255,-0.00024389,0.00031379,-0.00028319,-0.00018455,-0.
 00051633,0.00059416,-0.00003216,0.00102571,-0.00002632,0.00000609,-0.0
 0004435,-0.00022409,-0.00104223,-0.00076303,0.00001640,-0.00000918,0.0
 0002496,-0.00025482,0.00051180,-0.00028930,-0.00002219,0.00044570,0.00
 013017,-0.00002315,0.00028336,0.00040927,0.00025379,-0.00004709,0.0004
 2998,0.00000616,0.00006221,0.00002916,-0.00009069,0.00033254,-0.000056
 93,-0.00031962,-0.00008281,-0.00053996,-0.00987625,-0.19252397,-0.0595
 8400,-0.00162921,-0.02501335,-0.01232571,0.00198079,0.00366815,0.00520
 952,-0.00032243,0.00067254,-0.00005440,0.01855968,-0.02523689,0.022366
 55,0.00164474,-0.00511084,-0.00051160,0.03051334,-0.11585485,0.0359583
 4,-0.01081325,0.01121283,-0.01718458,-0.08118201,0.63214877,-0.0145684
 4,0.04013665,-0.00535929,-0.00426983,-0.00827798,-0.00594090,-0.019499
 98,-0.00434007,-0.09762613,0.00731784,-0.01251450,0.01369212,-0.001173
 63,-0.00272601,-0.00020727,-0.00058792,-0.00190104,-0.00071964,-0.0009
 4313,0.00260938,-0.00243093,0.00068002,-0.00210162,0.00083971,-0.00078
 157,0.00393615,-0.00029843,0.00118515,-0.00271984,0.00177871,-0.000034
 57,-0.00019777,-0.00014816,0.00104132,0.00209689,0.00092944,-0.0003303
 1,-0.00005026,-0.00027986,0.00019495,0.00010732,0.00024481,-0.00043014
 ,0.00001817,-0.00069706,0.00001988,-0.00000828,0.00002995,0.00012554,0
 .00077276,0.00054694,-0.00001219,0.00000567,-0.00001390,0.00029667,-0.
 00041241,0.00039086,0.00002680,-0.00026206,-0.00010326,-0.00006771,0.0
 0041486,-0.00107616,-0.00016875,-0.00001224,-0.00028694,-0.00000808,-0
 .00004258,-0.00001851,0.00006745,-0.00026772,0.00004461,0.00033443,0.0
 0003193,0.00043699,-0.03285739,-0.06733009,-0.14356108,0.01188569,-0.0
 1053078,0.02166891,-0.01118165,-0.01093978,-0.02489365,0.00014330,-0.0
 0018137,-0.00073285,-0.00864198,0.04839285,0.00769858,-0.00159266,-0.0
 0083689,0.00233995,-0.11018935,0.02062879,-0.24930900,-0.01112640,0.00
 927476,-0.01190117,0.21943205,0.01613201,0.53613524,0.00010292,0.00018
 820,0.00011521,-0.00000863,-0.00016274,0.00012107,-0.00012825,-0.00054
 555,-0.00051613,0.00009630,0.00052440,0.00047327,0.00006845,0.00038418
 ,0.00022978,0.00000382,-0.00025542,-0.00007088,-0.00014730,-0.00027285
 ,-0.00030373,-0.00004691,0.00002354,-0.00009943,-0.00001602,-0.0000046
 3,-0.00007948,0.00012596,0.00011745,0.00023212,-0.00000975,-0.00003418
 ,-0.00002982,0.00002291,-0.00045263,-0.00010124,-0.00006840,-0.0000130
 2,-0.00010805,0.00001249,0.00002492,0.00003939,-0.00006840,-0.00001327
 ,-0.00014176,0.00000232,-0.00000315,0.00000582,0.00001225,0.00018285,0
 .00010271,-0.00000437,0.00000894,-0.00000106,0.00012917,-0.00011953,0.
 00016267,0.00001725,0.00001571,0.00002446,-0.00012704,0.00025755,-0.00
 017099,-0.00002553,0.00000960,-0.00003930,-0.00000131,-0.00000845,-0.0
 0000348,0.00000383,-0.00006513,-0.00001569,0.00005559,0.00001650,0.000
 10536,0.01388443,-0.01281369,0.00978761,-0.08720679,-0.03188044,-0.064
 06715,-0.01005361,-0.01371138,-0.02522577,-0.00134984,-0.00071087,0.00
 184662,0.00231163,0.01243609,0.00008822,0.00025967,-0.00033769,-0.0005
 2427,0.00267483,-0.00604036,0.00353163,-0.00014431,-0.00025609,0.00003
 819,-0.00065060,0.00046775,-0.00416853,0.19171248,-0.00058176,-0.00188
 465,-0.00167277,-0.00054709,0.00119401,-0.00054793,0.00043920,-0.00197
 349,0.00011624,0.00014409,-0.00093584,-0.00002282,-0.00021436,-0.00037
 848,-0.00050975,-0.00002163,0.00016315,0.00001627,0.00030023,-0.000263
 40,0.00045408,-0.00012275,-0.00014422,-0.00027110,0.00017859,-0.000314
 64,0.00020636,-0.00015075,0.00026652,-0.00018605,0.00001029,0.00002701
 ,0.00002697,-0.00042021,0.00358366,0.00041896,0.00000762,0.00000064,0.
 00001817,-0.00001521,-0.00001663,-0.00003129,0.00002765,0.00002087,0.0
 0005288,-0.00000145,-0.00000113,-0.00000245,-0.00001045,-0.00008084,-0
 .00004030,0.00000018,-0.00000053,0.00000069,-0.00003191,0.00005997,-0.
 00004203,-0.00000201,0.00004389,0.00000892,0.00000749,-0.00005111,-0.0
 0000966,0.00000981,-0.00001118,0.00001444,0.00000030,0.00000291,0.0000
 0147,0.00000337,0.00000552,0.00000758,-0.00001290,-0.00001611,-0.00002
 828,0.00551040,-0.04128963,-0.00560530,-0.04018809,-0.18982154,-0.1146
 2291,-0.00493728,0.00954169,-0.00620893,-0.00051189,0.00060526,0.00010
 492,0.00238621,0.00954850,0.00586808,0.00021829,0.00073753,0.00046481,
 0.00350853,-0.00583283,0.00447290,-0.00008181,-0.00016320,-0.00012857,
 0.00095197,-0.00501864,-0.00051644,-0.05007654,0.73308400,-0.00013474,
 -0.00030356,-0.00026699,-0.00000321,0.00013217,-0.00006666,-0.00019860
 ,-0.00162465,-0.00081589,0.00034910,0.00065565,0.00076081,0.00003338,0
 .00055894,0.00025261,0.00000535,-0.00039344,-0.00012458,-0.00011876,-0
 .00056071,-0.00041979,-0.00014735,-0.00001247,-0.00025158,-0.00001912,
 -0.00012104,-0.00004670,0.00014566,0.00028655,0.00037122,-0.00001562,-
 0.00005339,-0.00004459,-0.00008994,0.00035995,-0.00004787,-0.00009976,
 -0.00001763,-0.00019525,0.00002555,0.00004082,0.00005469,-0.00012783,-
 0.00001623,-0.00022340,0.00000638,-0.00000559,0.00000806,0.00004047,0.
 00029692,0.00015539,-0.00000410,0.00001635,-0.00000389,0.00018755,-0.0
 0019449,0.00028627,0.00001881,0.00004108,0.00005349,-0.00025034,0.0004
 2828,-0.00028790,-0.00004047,0.00001512,-0.00006862,-0.00000080,-0.000
 01377,-0.00000656,0.00000804,-0.00011750,-0.00002316,0.00009522,0.0000
 2606,0.00017737,0.01576246,-0.03814598,0.02161264,-0.06676992,-0.09990
 149,-0.20810463,-0.02236703,-0.02178840,-0.04518171,0.00191391,-0.0002
 4537,0.00080280,-0.00317779,0.02372681,0.00659769,-0.00034379,-0.00052
 066,-0.00028792,0.00663159,-0.01249346,0.00730071,0.00009507,-0.000438
 20,-0.00018570,-0.00400181,-0.00138563,-0.00578885,0.15188120,0.117698
 67,0.40526761,-0.00010156,0.00023145,0.00017649,0.00007381,-0.00009703
 ,0.00003895,0.00005178,0.00002158,-0.00046552,-0.00007200,-0.00003201,
 0.00011814,-0.00003274,0.00001925,0.00003960,0.00003495,-0.00001644,-0
 .00000635,0.00001703,0.00000454,-0.00001668,0.00000376,0.00001058,0.00
 000858,-0.00002119,0.00001967,-0.00000545,-0.00001172,-0.00000114,0.00
 000901,0.00000234,-0.00000256,-0.00000158,0.00026988,-0.00028740,-0.00
 017919,-0.00000419,-0.00000194,-0.00000009,0.00000197,0.00000173,0.000
 00072,-0.00000293,-0.00000175,-0.00000354,0.00000083,0.00000021,-0.000
 00019,0.00000061,0.00000618,0.00000370,0.00000126,0.00000017,-0.000000
 82,-0.00000033,-0.00000509,0.00000556,0.00000229,-0.00000276,-0.000002
 10,0.00000422,0.00000685,-0.00000831,-0.00000120,0.00000018,-0.0000007
 3,0.00000075,-0.00000018,-0.00000059,0.00000157,-0.00000113,-0.0000013
 4,-0.00000046,0.00000081,0.00000320,0.00201098,-0.00061988,-0.00427593
 ,0.00471628,-0.01057010,0.00095548,-0.00194591,-0.00028113,0.00196445,
 0.00010055,0.00025060,-0.00028414,0.00000326,0.00011281,-0.00002668,0.
 00018641,0.00002903,-0.00011131,-0.00027265,-0.00003121,0.00021461,-0.
 00003454,0.00000686,0.00000668,0.00087702,-0.00041590,0.00005536,-0.03
 712090,0.03832577,-0.00605211,0.03098225,-0.00006657,-0.00007296,-0.00
 009068,-0.00000326,0.00004392,-0.00000255,0.00011216,-0.00028904,0.000
 00200,0.00003449,-0.00000516,0.00010629,-0.00001768,0.00006122,0.00000
 552,-0.00002153,-0.00010732,-0.00008494,-0.00005536,0.00004850,-0.0000
 9146,0.00002553,-0.00004003,0.00003184,-0.00000773,-0.00000345,-0.0000
 1013,0.00004666,-0.00004942,0.00007241,-0.00000348,-0.00001219,-0.0000
 1106,0.00003112,0.00009222,-0.00001841,-0.00001561,-0.00000431,-0.0000
 2747,0.00000710,0.00000929,0.00001472,-0.00002390,-0.00000705,-0.00004
 421,0.00000101,-0.00000064,0.00000127,0.00000693,0.00005874,0.00003161
 ,-0.00000046,0.00000133,-0.00000101,0.00003110,-0.00003991,0.00004373,
 0.00000290,-0.00000312,0.00000313,-0.00003330,0.00006156,-0.00004220,-
 0.00000846,0.00000297,-0.00001387,-0.00000015,-0.00000276,-0.00000156,
 0.00000136,-0.00001753,-0.00000391,0.00001651,0.00000534,0.00003167,0.
 00023063,-0.00064453,-0.00119412,0.00285302,-0.00461667,0.00283332,-0.
 00040552,0.00044921,0.00043293,-0.00014181,0.00003171,-0.00034229,0.00
 000651,0.00017677,0.00005609,0.00002932,0.00001458,-0.00002585,0.00008
 065,-0.00019702,0.00020886,-0.00000838,0.00001234,0.00000093,0.0001878
 9,-0.00006643,0.00006394,0.03667599,-0.35282162,-0.04081562,-0.0395336
 2,0.36314633,0.00008026,0.00043887,0.00012716,0.00006986,-0.00016891,0
 .00010281,-0.00043641,-0.00015834,-0.00050945,0.00013983,-0.00001059,0
 .00010012,0.00002756,0.00007130,0.00002129,-0.00000802,-0.00007579,-0.
 00000338,-0.00003635,0.00001478,-0.00003208,0.00001340,0.00000555,0.00
 002648,-0.00001442,0.00003851,-0.00002766,0.00002466,-0.00001248,0.000
 02267,-0.00000192,-0.00000958,-0.00000378,-0.00007569,-0.00058492,-0.0
 0000594,-0.00000453,-0.00000332,-0.00001357,0.00000258,0.00000546,0.00
 000811,-0.00001081,-0.00000479,-0.00002192,0.00000008,-0.00000015,0.00
 000106,0.00000394,0.00003006,0.00001640,-0.00000101,0.00000017,-0.0000
 0002,0.00001711,-0.00002053,0.00001939,-0.00000021,-0.00000679,0.00000
 033,-0.00002130,0.00002861,-0.00001834,-0.00000360,0.00000167,-0.00000
 662,-0.00000060,-0.00000154,-0.00000052,-0.00000045,-0.00000865,-0.000
 00147,0.00000832,0.00000400,0.00001392,-0.00400223,-0.00270217,-0.0036
 9017,0.00531614,-0.02100673,0.00484476,0.00192746,0.00065555,0.0005303
 9,-0.00041171,0.00034992,-0.00030294,-0.00006052,0.00024499,0.00001058
 ,-0.00011098,-0.00002605,0.00004878,0.00025132,0.00001129,0.00005055,0
 .00000166,0.00002813,-0.00002474,0.00025174,-0.00101196,0.00088700,-0.
 00659048,-0.03791632,-0.05074881,0.00673175,0.04129750,0.04537996,0.00
 051996,0.00170122,0.00058491,0.00034693,-0.00068114,0.00044928,-0.0006
 3472,0.00069029,0.00004508,-0.00025753,-0.00012152,-0.00002176,0.00017
 090,0.00008385,0.00002130,-0.00010901,-0.00009539,-0.00006344,-0.00016
 969,0.00051121,-0.00013328,0.00017051,-0.00004511,0.00031087,-0.000179
 86,0.00022636,-0.00015894,0.00008834,-0.00036817,0.00001883,0.00001532
 ,-0.00000683,-0.00001330,-0.00007544,-0.00239676,-0.00006855,0.0000126
 3,0.00000268,0.00004360,0.00000896,0.00000214,-0.00000165,0.00000646,-
 0.00000481,0.00002479,0.00000076,0.00000237,-0.00000027,0.00001212,-0.
 00002218,-0.00001297,0.00000447,-0.00000287,-0.00000186,-0.00006035,0.
 00000368,-0.00004041,0.00000270,-0.00004382,-0.00002306,0.00006775,-0.
 00009223,0.00006921,0.00000433,0.00000305,0.00000752,0.00000171,0.0000
 0130,-0.00000061,-0.00000468,0.00002086,0.00000326,-0.00000363,0.00000
 673,-0.00002874,-0.01004339,-0.00819381,-0.03526468,-0.01077034,-0.008
 47075,-0.04114655,0.00889892,-0.00082580,0.00341711,0.00004531,0.00016
 859,0.00006219,-0.00045690,-0.00667391,-0.00234926,-0.00076516,-0.0003
 4992,0.00033176,-0.00244901,0.00415882,-0.00409647,-0.00065202,0.00022
 883,0.00034323,0.00622630,0.00536711,-0.00066479,-0.07381242,0.0382497
 1,-0.05641970,-0.00208753,-0.00063478,0.00095827,0.12498486,0.00074385
 ,-0.00088468,0.00087356,-0.00040158,0.00020742,-0.00063274,-0.00039185
 ,-0.00307857,-0.00152355,0.00058436,0.00124803,0.00152880,0.00025418,0
 .00047491,0.00055048,-0.00021853,-0.00044612,-0.00050794,-0.00099888,0
 .00071347,-0.00153931,0.00019076,-0.00053243,0.00017202,0.00026929,-0.
 00014429,0.00044613,0.00069394,-0.00096015,0.00091613,-0.00002355,-0.0
 0005750,-0.00006783,-0.00085193,-0.00207449,-0.00204278,-0.00011586,0.
 00000700,-0.00020293,0.00005971,0.00004774,0.00012040,-0.00016560,-0.0
 0001438,-0.00029669,0.00000661,-0.00000606,0.00000938,0.00005151,0.000
 34517,0.00019817,-0.00000383,0.00000619,-0.00000611,0.00017388,-0.0002
 0915,0.00025204,0.00001491,0.00000016,0.00002415,-0.00021080,0.0003291
 2,-0.00026928,-0.00006747,0.00000803,-0.00011752,-0.00000144,-0.000017
 25,-0.00000845,0.00002238,-0.00011715,0.00000257,0.00011744,0.00001222
 ,0.00020852,-0.01847853,-0.02820363,-0.04469900,0.01681301,0.00063192,
 0.02657420,-0.00399781,-0.00307345,-0.01031815,0.00025723,-0.00019369,
 0.00037974,0.00106536,0.00480876,0.00356706,-0.00024583,-0.00000923,-0
 .00011075,0.00062290,-0.00572303,-0.00095845,-0.00017164,0.00040621,0.
 00008850,0.00158404,0.00992913,0.00359576,0.05314082,-0.09858109,0.073
 87870,0.00948448,-0.00583239,0.01584967,-0.02963316,0.26839137,0.00026
 853,0.00257842,0.00182494,0.00054270,-0.00113387,0.00055973,-0.0003042
 5,0.00040312,-0.00094819,0.00020526,0.00027496,0.00019154,0.00007651,0
 .00024591,0.00039071,-0.00010388,-0.00028739,-0.00036822,-0.00062202,0
 .00114092,-0.00073799,0.00038845,-0.00024782,0.00059578,-0.00014600,0.
 00037229,-0.00018553,0.00036460,-0.00096874,0.00033966,-0.00001861,-0.
 00003731,-0.00002369,0.00043413,-0.00478106,-0.00126285,0.00000377,0.0
 0000982,0.00000028,0.00001779,0.00001595,0.00004620,-0.00002756,-0.000
 01176,-0.00006155,0.00000106,0.00000187,0.00000392,0.00001032,0.000069
 82,0.00005758,-0.00000199,-0.00000468,-0.00000036,0.00001589,-0.000051
 01,-0.00002479,-0.00000374,-0.00008074,-0.00002595,0.00003033,-0.00005
 799,0.00004644,-0.00001497,0.00000734,-0.00002347,-0.00000124,-0.00000
 399,-0.00000165,0.00000319,0.00000110,0.00000336,0.00000747,0.00001092
 ,0.00003037,-0.03868359,-0.02651191,-0.06895660,-0.03298228,-0.0184030
 4,-0.05371764,0.00239230,-0.00468631,0.00954504,0.00008998,0.00022356,
 0.00027499,0.00016693,-0.01018933,-0.00337076,0.00036408,-0.00029524,-
 0.00046206,-0.00525120,0.00533225,-0.00697844,0.00021140,0.00080041,-0
 .00016533,-0.00189775,0.01030016,0.00757669,-0.05151727,0.04739847,-0.
 11126616,0.00424970,-0.00214062,0.00411094,0.13032272,0.01951836,0.284
 00338,0.00347518,-0.00131681,0.00248413,0.00067721,0.00035808,-0.00040
 177,-0.00274185,0.00773109,-0.00055807,-0.00016247,-0.00127472,-0.0010
 9024,-0.00054507,-0.00015137,-0.00003888,0.00041180,0.00046681,0.00032
 513,0.00078736,-0.00066598,0.00106137,-0.00026413,0.00046120,-0.000120
 20,0.00022033,-0.00003673,0.00020362,-0.00053527,0.00076343,-0.0007071
 8,0.00002457,0.00006843,0.00006295,-0.00409231,-0.00085780,-0.00078559
 ,0.00021289,0.00000901,0.00012778,-0.00010345,-0.00005709,-0.00006949,
 0.00018335,0.00001304,0.00027872,-0.00000911,0.00000431,-0.00000996,-0
 .00007103,-0.00035041,-0.00020210,0.00000028,-0.00001537,0.00000828,-0
 .00012823,0.00022104,-0.00027328,-0.00003469,0.00001769,-0.00001781,0.
 00007960,-0.00031948,0.00033414,0.00005550,-0.00001292,0.00009564,-0.0
 0000052,0.00001656,0.00000836,-0.00000366,0.00011787,0.00000722,-0.000
 16207,-0.00003110,-0.00017695,-0.13984159,0.04447445,-0.12196401,-0.00
 136139,0.03526841,-0.01933398,0.00190415,0.00352433,-0.00046689,-0.000
 68121,-0.00001092,-0.00068457,-0.00174521,0.00305725,-0.00014411,0.000
 04196,0.00003295,0.00005164,0.00518357,-0.00293143,0.00267636,0.000642
 90,0.00005292,-0.00068471,-0.01012889,-0.01555735,-0.01950744,-0.00050
 591,0.00764840,-0.01681693,0.00236607,0.00060071,-0.00403472,-0.039057
 60,-0.03017239,-0.00859081,0.18590898,-0.00036422,-0.01428005,-0.00592
 006,-0.00155631,0.00087060,-0.00279731,0.00278776,-0.00129134,0.004891
 99,-0.00030281,-0.00133973,-0.00104242,-0.00035790,-0.00107452,-0.0008
 0931,-0.00015037,0.00036966,-0.00024721,0.00042928,-0.00019681,0.00067
 516,-0.00012070,-0.00035772,-0.00029726,0.00018639,-0.00012017,0.00026
 233,-0.00020519,0.00020454,-0.00029899,0.00000557,0.00006066,0.0000293
 6,-0.00073018,0.00073774,0.00042904,0.00003382,0.00001063,0.00001907,-
 0.00003111,-0.00002489,-0.00004051,0.00004214,0.00003660,0.00007769,-0
 .00000139,-0.00000051,-0.00000170,-0.00000851,-0.00012220,-0.00004741,
 -0.00000016,0.00000099,0.00000222,-0.00005025,0.00009776,-0.00007832,-
 0.00000614,0.00003055,0.00000606,0.00000231,-0.00007865,0.00003207,0.0
 0001808,-0.00001792,0.00002649,0.00000100,0.00000516,0.00000391,0.0000
 0551,0.00001327,0.00000972,-0.00003085,-0.00001766,-0.00003895,0.02791
 466,-0.11137454,0.03387997,0.01354158,-0.01249397,0.01482377,0.0008546
 6,-0.00699045,-0.00166738,0.00082130,0.00000119,0.00155628,-0.00053148
 ,0.00119727,-0.00019455,0.00003536,0.00021958,0.00012769,0.00054266,-0
 .00464393,-0.00156638,-0.00044842,0.00058295,-0.00094068,-0.01508571,0
 .01266776,-0.02204812,0.01330317,-0.05928441,0.00100726,0.00336849,0.0
 0061749,0.00465357,0.00723410,-0.13740813,-0.01881293,-0.05114613,0.33
 339318,0.00279934,-0.00757691,0.00432277,-0.00102446,0.00060520,-0.000
 65314,-0.00217838,0.01362523,-0.00041447,-0.00076925,-0.00276855,-0.00
 205917,-0.00010498,-0.00043540,-0.00088209,0.00012321,0.00084854,0.000
 81229,0.00141471,-0.00126851,0.00217198,-0.00031027,0.00073838,-0.0004
 2183,0.00027678,-0.00013626,0.00054626,-0.00102172,0.00142033,-0.00134
 966,0.00004215,0.00014048,0.00012282,-0.00065580,0.00003507,-0.0051390
 6,0.00013580,-0.00002627,0.00037637,-0.00006138,-0.00008507,-0.0002117
 2,0.00028835,0.00002623,0.00054984,-0.00001165,0.00000834,-0.00002106,
 -0.00009087,-0.00065652,-0.00039625,0.00001316,-0.00002465,0.00000823,
 -0.00036104,0.00040446,-0.00044587,-0.00002574,0.00004860,-0.00005067,
 0.00043947,-0.00054026,0.00043702,0.00010530,-0.00002842,0.00017730,0.
 00000320,0.00003165,0.00001394,-0.00002879,0.00020860,0.00003028,-0.00
 017699,-0.00003898,-0.00039539,-0.12735910,0.06355087,-0.26887125,-0.0
 2634886,0.05345572,-0.01354829,-0.00132565,0.00308314,0.00146113,-0.00
 041681,0.00007660,-0.00100695,-0.00130970,0.00617081,-0.00142594,0.000
 05218,0.00012346,0.00015263,0.00379955,-0.00773877,0.00738225,-0.00084
 928,-0.00005276,-0.00048306,-0.01936301,-0.02284358,-0.04384745,-0.015
 01078,-0.00898801,-0.01924416,-0.00313930,-0.00027582,-0.00091128,0.00
 349634,-0.08545287,-0.06102039,0.18895430,-0.00566413,0.40423404||0.00
 000177,0.00000285,-0.00000168,0.00000414,0.00000044,-0.00000499,0.0000
 0091,-0.00000094,-0.00000250,-0.00000074,0.00000263,0.00000034,0.00000
 113,-0.00000255,-0.00000056,-0.00000081,0.00000096,0.00000244,-0.00000
 556,-0.00000070,0.00000579,-0.00000137,-0.00000277,0.00000145,0.000005
 32,0.00000133,-0.00000255,-0.00000490,-0.00000125,0.00000231,-0.000004
 78,-0.00000125,0.00000327,0.00000493,0.00000128,-0.00000335,-0.0000036
 7,-0.00000146,0.00000315,0.00000146,-0.00000044,0.00000198,0.00000177,
 0.00000008,-0.00000109,0.00000294,0.00000077,0.00000095,0.00000385,0.0
 0000296,0.00000031,0.00000588,0.00000154,-0.00000177,0.00000380,0.0000
 0011,-0.00000015,0.00000439,0.00000116,-0.00000124,-0.00000077,0.00000
 061,-0.00000027,-0.00000499,0.00000029,0.00000261,-0.00000261,-0.00000
 122,0.00000406,-0.00000506,-0.00000376,0.00000415,-0.00000281,-0.00000
 063,0.00000376,0.00000366,0.00000146,-0.00000315,-0.00000165,0.0000004
 1,-0.00000187,-0.00000185,-0.00000009,0.00000113,-0.00000294,-0.000000
 77,-0.00000095,-0.00000384,-0.00000295,-0.00000032,-0.00000586,-0.0000
 0154,0.00000176,-0.00000385,-0.00000012,0.00000018,-0.00000436,-0.0000
 0115,0.00000122,0.00000075,-0.00000061,0.00000027,0.00000535,-0.000000
 23,-0.00000281,0.00000264,0.00000122,-0.00000408,0.00000468,0.00000369
 ,-0.00000393,0.00000304,0.00000067,-0.00000388|||@


      SCIENCE SANS CONSCIENCE N'EST QUE RUINE DE L'AME.

                                                  -- RABELAIS
 Job cpu time:  0 days  9 hours 10 minutes  4.0 seconds.
 File lengths (MBytes):  RWF=   2467 Int=      0 D2E=      0 Chk=     30 Scr=      1
 Normal termination of Gaussian 09 at Wed Sep 27 19:48:01 2023.
