 Entering Link 1 = C:\G09W\l1.exe PID=      9328.
  
 Copyright (c) 1988,1990,1992,1993,1995,1998,2003,2009,2010,
            Gaussian, Inc.  All Rights Reserved.
  
 This is part of the Gaussian(R) 09 program.  It is based on
 the Gaussian(R) 03 system (copyright 2003, Gaussian, Inc.),
 the Gaussian(R) 98 system (copyright 1998, Gaussian, Inc.),
 the Gaussian(R) 94 system (copyright 1995, Gaussian, Inc.),
 the Gaussian 92(TM) system (copyright 1992, Gaussian, Inc.),
 the Gaussian 90(TM) system (copyright 1990, Gaussian, Inc.),
 the Gaussian 88(TM) system (copyright 1988, Gaussian, Inc.),
 the Gaussian 86(TM) system (copyright 1986, Carnegie Mellon
 University), and the Gaussian 82(TM) system (copyright 1983,
 Carnegie Mellon University). Gaussian is a federally registered
 trademark of Gaussian, Inc.
  
 This software contains proprietary and confidential information,
 including trade secrets, belonging to Gaussian, Inc.
  
 This software is provided under written license and may be
 used, copied, transmitted, or stored only in accord with that
 written license.
  
 The following legend is applicable only to US Government
 contracts under FAR:
  
                    RESTRICTED RIGHTS LEGEND
  
 Use, reproduction and disclosure by the US Government is
 subject to restrictions as set forth in subparagraphs (a)
 and (c) of the Commercial Computer Software - Restricted
 Rights clause in FAR 52.227-19.
  
 Gaussian, Inc.
 340 Quinnipiac St., Bldg. 40, Wallingford CT 06492
  
  
 ---------------------------------------------------------------
 Warning -- This program may not be used in any manner that
 competes with the business of Gaussian, Inc. or will provide
 assistance to any competitor of Gaussian, Inc.  The licensee
 of this program is prohibited from giving any competitor of
 Gaussian, Inc. access to this program.  By using this program,
 the user acknowledges that Gaussian, Inc. is engaged in the
 business of creating and licensing software in the field of
 computational chemistry and represents and warrants to the
 licensee that it is not a competitor of Gaussian, Inc. and that
 it will not use this program in any manner prohibited above.
 ---------------------------------------------------------------
  

 Cite this work as:
 Gaussian 09, Revision B.01,
 M. J. Frisch, G. W. Trucks, H. B. Schlegel, G. E. Scuseria, 
 M. A. Robb, J. R. Cheeseman, G. Scalmani, V. Barone, B. Mennucci, 
 G. A. Petersson, H. Nakatsuji, M. Caricato, X. Li, H. P. Hratchian, 
 A. F. Izmaylov, J. Bloino, G. Zheng, J. L. Sonnenberg, M. Hada, 
 M. Ehara, K. Toyota, R. Fukuda, J. Hasegawa, M. Ishida, T. Nakajima, 
 Y. Honda, O. Kitao, H. Nakai, T. Vreven, J. A. Montgomery, Jr., 
 J. E. Peralta, F. Ogliaro, M. Bearpark, J. J. Heyd, E. Brothers, 
 K. N. Kudin, V. N. Staroverov, T. Keith, R. Kobayashi, J. Normand, 
 K. Raghavachari, A. Rendell, J. C. Burant, S. S. Iyengar, J. Tomasi, 
 M. Cossi, N. Rega, J. M. Millam, M. Klene, J. E. Knox, J. B. Cross, 
 V. Bakken, C. Adamo, J. Jaramillo, R. Gomperts, R. E. Stratmann, 
 O. Yazyev, A. J. Austin, R. Cammi, C. Pomelli, J. W. Ochterski, 
 R. L. Martin, K. Morokuma, V. G. Zakrzewski, G. A. Voth, 
 P. Salvador, J. J. Dannenberg, S. Dapprich, A. D. Daniels, 
 O. Farkas, J. B. Foresman, J. V. Ortiz, J. Cioslowski, 
 and D. J. Fox, Gaussian, Inc., Wallingford CT, 2010.
 
 ******************************************
 Gaussian 09:  IA32W-G09RevB.01 12-Aug-2010
                28-Sep-2023 
 ******************************************
 %nprocshared=6
 Will use up to    6 processors via shared memory.
 %chk=DPP-SUB-5A-ANION.chk
 -----------------------------------------------------------
 # opt=tight freq b3lyp/6-31+g(d,p) nosymm geom=connectivity
 -----------------------------------------------------------
 1/7=10,14=-1,18=20,19=15,26=3,38=1,57=2/1,3;
 2/9=110,12=2,15=1,17=6,18=5,40=1/2;
 3/5=1,6=6,7=111,11=2,16=1,25=1,30=1,71=1,74=-5/1,2,3;
 4//1;
 5/5=2,38=5/2;
 6/7=2,8=2,9=2,10=2,28=1/1;
 7/30=1/1,2,3,16;
 1/7=10,14=-1,18=20,19=15/3(2);
 2/9=110,15=1/2;
 99//99;
 2/9=110,15=1/2;
 3/5=1,6=6,7=111,11=2,16=1,25=1,30=1,71=1,74=-5/1,2,3;
 4/5=5,16=3/1;
 5/5=2,38=5/2;
 7/30=1/1,2,3,16;
 1/7=10,14=-1,18=20,19=15/3(-5);
 2/9=110,15=1/2;
 6/7=2,8=2,9=2,10=2,19=2,28=1/1;
 99/9=1/99;
 -------
 Energy:
 -------
 Symbolic Z-matrix:
 Charge = -1 Multiplicity = 2
 N                    -0.80842  -1.14853  -1.85876 
 C                    -1.04161   0.24521  -1.81663 
 C                    -0.10509  -1.61319  -0.75895 
 C                     0.14716  -0.50912   0.05257 
 C                    -0.4131    0.64958  -0.56455 
 C                    -0.16086   1.75366   0.24697 
 C                     0.77566  -0.10474   1.30465 
 N                     0.54247   1.28899   1.34678 
 O                    -1.64636   0.86788  -2.68928 
 O                     1.38042  -0.72742   2.1773 
 H                     0.85269   1.89738   2.09767 
 H                    -1.11864  -1.75692  -2.60964 
 C                    -0.1586    4.16837   1.0384 
 C                    -0.5426    5.54753   0.80393 
 C                    -1.26874   5.90555  -0.36953 
 H                    -1.55371   6.93899  -0.54015 
 C                    -1.5932    4.91661  -1.26641 
 H                    -2.14575   5.16152  -2.16803 
 C                    -1.2236    3.56052  -1.05025 
 H                    -1.50601   2.81792  -1.79266 
 C                    -0.51506   3.14983   0.07369 
 C                    -0.09749   6.34307   1.85358 
 H                    -0.21886   7.41035   1.98452 
 S                     0.71893   5.37219   2.98954 
 N                     0.51992   3.93996   2.17034 
 C                    -0.10735  -4.02791  -1.55038 
 C                     0.27664  -5.40707  -1.3159 
 C                     1.00278  -5.76509  -0.14244 
 H                     1.28775  -6.79853   0.02819 
 C                     1.32724  -4.77615   0.75444 
 H                     1.8798   -5.02106   1.65605 
 C                     0.95765  -3.42006   0.53828 
 H                     1.24006  -2.67746   1.28069 
 C                     0.24911  -3.00937  -0.58566 
 C                    -0.16847  -6.20261  -2.36555 
 H                    -0.04711  -7.26989  -2.49649 
 S                    -0.98488  -5.23173  -3.50152 
 N                    -0.78587  -3.7995   -2.68232 
 

 GradGradGradGradGradGradGradGradGradGradGradGradGradGradGradGradGradGrad
 Berny optimization.
 Initialization pass.
                           ----------------------------
                           !    Initial Parameters    !
                           ! (Angstroms and Degrees)  !
 --------------------------                            --------------------------
 ! Name  Definition              Value          Derivative Info.                !
 --------------------------------------------------------------------------------
 ! R1    R(1,2)                  1.4137         estimate D2E/DX2                !
 ! R2    R(1,3)                  1.3857         estimate D2E/DX2                !
 ! R3    R(1,12)                 1.015          estimate D2E/DX2                !
 ! R4    R(2,5)                  1.4582         estimate D2E/DX2                !
 ! R5    R(2,9)                  1.2308         estimate D2E/DX2                !
 ! R6    R(3,4)                  1.3933         estimate D2E/DX2                !
 ! R7    R(3,34)                 1.4508         estimate D2E/DX2                !
 ! R8    R(4,5)                  1.4273         estimate D2E/DX2                !
 ! R9    R(4,7)                  1.4582         estimate D2E/DX2                !
 ! R10   R(5,6)                  1.3933         estimate D2E/DX2                !
 ! R11   R(6,8)                  1.3857         estimate D2E/DX2                !
 ! R12   R(6,21)                 1.4508         estimate D2E/DX2                !
 ! R13   R(7,8)                  1.4137         estimate D2E/DX2                !
 ! R14   R(7,10)                 1.2308         estimate D2E/DX2                !
 ! R15   R(8,11)                 1.015          estimate D2E/DX2                !
 ! R16   R(11,25)                2.0708         estimate D2E/DX2                !
 ! R17   R(12,38)                2.0708         estimate D2E/DX2                !
 ! R18   R(13,14)                1.4507         estimate D2E/DX2                !
 ! R19   R(13,21)                1.4475         estimate D2E/DX2                !
 ! R20   R(13,25)                1.3393         estimate D2E/DX2                !
 ! R21   R(14,15)                1.4256         estimate D2E/DX2                !
 ! R22   R(14,22)                1.3902         estimate D2E/DX2                !
 ! R23   R(15,16)                1.0855         estimate D2E/DX2                !
 ! R24   R(15,17)                1.3739         estimate D2E/DX2                !
 ! R25   R(17,18)                1.0855         estimate D2E/DX2                !
 ! R26   R(17,19)                1.4221         estimate D2E/DX2                !
 ! R27   R(19,20)                1.0874         estimate D2E/DX2                !
 ! R28   R(19,21)                1.3907         estimate D2E/DX2                !
 ! R29   R(22,23)                1.0821         estimate D2E/DX2                !
 ! R30   R(22,24)                1.7028         estimate D2E/DX2                !
 ! R31   R(24,25)                1.6619         estimate D2E/DX2                !
 ! R32   R(26,27)                1.4507         estimate D2E/DX2                !
 ! R33   R(26,34)                1.4475         estimate D2E/DX2                !
 ! R34   R(26,38)                1.3393         estimate D2E/DX2                !
 ! R35   R(27,28)                1.4256         estimate D2E/DX2                !
 ! R36   R(27,35)                1.3902         estimate D2E/DX2                !
 ! R37   R(28,29)                1.0855         estimate D2E/DX2                !
 ! R38   R(28,30)                1.3739         estimate D2E/DX2                !
 ! R39   R(30,31)                1.0855         estimate D2E/DX2                !
 ! R40   R(30,32)                1.4221         estimate D2E/DX2                !
 ! R41   R(32,33)                1.0874         estimate D2E/DX2                !
 ! R42   R(32,34)                1.3907         estimate D2E/DX2                !
 ! R43   R(35,36)                1.0821         estimate D2E/DX2                !
 ! R44   R(35,37)                1.7028         estimate D2E/DX2                !
 ! R45   R(37,38)                1.6619         estimate D2E/DX2                !
 ! A1    A(2,1,3)              112.9951         estimate D2E/DX2                !
 ! A2    A(2,1,12)             124.233          estimate D2E/DX2                !
 ! A3    A(3,1,12)             122.772          estimate D2E/DX2                !
 ! A4    A(1,2,5)              103.1728         estimate D2E/DX2                !
 ! A5    A(1,2,9)              123.9624         estimate D2E/DX2                !
 ! A6    A(5,2,9)              132.8648         estimate D2E/DX2                !
 ! A7    A(1,3,4)              106.7654         estimate D2E/DX2                !
 ! A8    A(1,3,34)             122.7805         estimate D2E/DX2                !
 ! A9    A(4,3,34)             130.454          estimate D2E/DX2                !
 ! A10   A(3,4,5)              108.6872         estimate D2E/DX2                !
 ! A11   A(3,4,7)              142.9333         estimate D2E/DX2                !
 ! A12   A(5,4,7)              108.3795         estimate D2E/DX2                !
 ! A13   A(2,5,4)              108.3795         estimate D2E/DX2                !
 ! A14   A(2,5,6)              142.9333         estimate D2E/DX2                !
 ! A15   A(4,5,6)              108.6872         estimate D2E/DX2                !
 ! A16   A(5,6,8)              106.7654         estimate D2E/DX2                !
 ! A17   A(5,6,21)             130.454          estimate D2E/DX2                !
 ! A18   A(8,6,21)             122.7805         estimate D2E/DX2                !
 ! A19   A(4,7,8)              103.1727         estimate D2E/DX2                !
 ! A20   A(4,7,10)             132.8649         estimate D2E/DX2                !
 ! A21   A(8,7,10)             123.9624         estimate D2E/DX2                !
 ! A22   A(6,8,7)              112.9951         estimate D2E/DX2                !
 ! A23   A(6,8,11)             122.772          estimate D2E/DX2                !
 ! A24   A(7,8,11)             124.2329         estimate D2E/DX2                !
 ! A25   A(14,13,21)           119.7401         estimate D2E/DX2                !
 ! A26   A(14,13,25)           115.6466         estimate D2E/DX2                !
 ! A27   A(21,13,25)           124.6133         estimate D2E/DX2                !
 ! A28   A(13,14,15)           120.4374         estimate D2E/DX2                !
 ! A29   A(13,14,22)           109.7088         estimate D2E/DX2                !
 ! A30   A(15,14,22)           129.8538         estimate D2E/DX2                !
 ! A31   A(14,15,16)           120.1438         estimate D2E/DX2                !
 ! A32   A(14,15,17)           118.4794         estimate D2E/DX2                !
 ! A33   A(16,15,17)           121.3767         estimate D2E/DX2                !
 ! A34   A(15,17,18)           120.003          estimate D2E/DX2                !
 ! A35   A(15,17,19)           121.7215         estimate D2E/DX2                !
 ! A36   A(18,17,19)           118.2755         estimate D2E/DX2                !
 ! A37   A(17,19,20)           118.6828         estimate D2E/DX2                !
 ! A38   A(17,19,21)           122.4713         estimate D2E/DX2                !
 ! A39   A(20,19,21)           118.8458         estimate D2E/DX2                !
 ! A40   A(6,21,13)            122.5103         estimate D2E/DX2                !
 ! A41   A(6,21,19)            120.3395         estimate D2E/DX2                !
 ! A42   A(13,21,19)           117.1502         estimate D2E/DX2                !
 ! A43   A(14,22,23)           128.3044         estimate D2E/DX2                !
 ! A44   A(14,22,24)           109.3243         estimate D2E/DX2                !
 ! A45   A(23,22,24)           122.3713         estimate D2E/DX2                !
 ! A46   A(22,24,25)            96.034          estimate D2E/DX2                !
 ! A47   A(13,25,24)           109.2863         estimate D2E/DX2                !
 ! A48   A(27,26,34)           119.7402         estimate D2E/DX2                !
 ! A49   A(27,26,38)           115.6465         estimate D2E/DX2                !
 ! A50   A(34,26,38)           124.6133         estimate D2E/DX2                !
 ! A51   A(26,27,28)           120.4373         estimate D2E/DX2                !
 ! A52   A(26,27,35)           109.7088         estimate D2E/DX2                !
 ! A53   A(28,27,35)           129.8538         estimate D2E/DX2                !
 ! A54   A(27,28,29)           120.1439         estimate D2E/DX2                !
 ! A55   A(27,28,30)           118.4794         estimate D2E/DX2                !
 ! A56   A(29,28,30)           121.3766         estimate D2E/DX2                !
 ! A57   A(28,30,31)           120.0029         estimate D2E/DX2                !
 ! A58   A(28,30,32)           121.7216         estimate D2E/DX2                !
 ! A59   A(31,30,32)           118.2755         estimate D2E/DX2                !
 ! A60   A(30,32,33)           118.6829         estimate D2E/DX2                !
 ! A61   A(30,32,34)           122.4713         estimate D2E/DX2                !
 ! A62   A(33,32,34)           118.8458         estimate D2E/DX2                !
 ! A63   A(3,34,26)            122.5102         estimate D2E/DX2                !
 ! A64   A(3,34,32)            120.3395         estimate D2E/DX2                !
 ! A65   A(26,34,32)           117.1502         estimate D2E/DX2                !
 ! A66   A(27,35,36)           128.3043         estimate D2E/DX2                !
 ! A67   A(27,35,37)           109.3243         estimate D2E/DX2                !
 ! A68   A(36,35,37)           122.3714         estimate D2E/DX2                !
 ! A69   A(35,37,38)            96.034          estimate D2E/DX2                !
 ! A70   A(26,38,37)           109.2864         estimate D2E/DX2                !
 ! D1    D(3,1,2,5)             -0.0064         estimate D2E/DX2                !
 ! D2    D(3,1,2,9)            179.9948         estimate D2E/DX2                !
 ! D3    D(12,1,2,5)           179.9568         estimate D2E/DX2                !
 ! D4    D(12,1,2,9)            -0.042          estimate D2E/DX2                !
 ! D5    D(2,1,3,4)              0.0022         estimate D2E/DX2                !
 ! D6    D(2,1,3,34)           179.9825         estimate D2E/DX2                !
 ! D7    D(12,1,3,4)          -179.9616         estimate D2E/DX2                !
 ! D8    D(12,1,3,34)            0.0187         estimate D2E/DX2                !
 ! D9    D(1,2,5,4)              0.0081         estimate D2E/DX2                !
 ! D10   D(1,2,5,6)            179.9969         estimate D2E/DX2                !
 ! D11   D(9,2,5,4)           -179.9933         estimate D2E/DX2                !
 ! D12   D(9,2,5,6)             -0.0044         estimate D2E/DX2                !
 ! D13   D(1,3,4,5)              0.0032         estimate D2E/DX2                !
 ! D14   D(1,3,4,7)            179.992          estimate D2E/DX2                !
 ! D15   D(34,3,4,5)          -179.9751         estimate D2E/DX2                !
 ! D16   D(34,3,4,7)             0.0137         estimate D2E/DX2                !
 ! D17   D(1,3,34,26)           -0.076          estimate D2E/DX2                !
 ! D18   D(1,3,34,32)          179.9345         estimate D2E/DX2                !
 ! D19   D(4,3,34,26)          179.8993         estimate D2E/DX2                !
 ! D20   D(4,3,34,32)           -0.0902         estimate D2E/DX2                !
 ! D21   D(3,4,5,2)             -0.0072         estimate D2E/DX2                !
 ! D22   D(3,4,5,6)            179.9998         estimate D2E/DX2                !
 ! D23   D(7,4,5,2)            179.9999         estimate D2E/DX2                !
 ! D24   D(7,4,5,6)              0.0069         estimate D2E/DX2                !
 ! D25   D(3,4,7,8)           -179.9967         estimate D2E/DX2                !
 ! D26   D(3,4,7,10)             0.0044         estimate D2E/DX2                !
 ! D27   D(5,4,7,8)             -0.0078         estimate D2E/DX2                !
 ! D28   D(5,4,7,10)           179.9933         estimate D2E/DX2                !
 ! D29   D(2,5,6,8)           -179.9919         estimate D2E/DX2                !
 ! D30   D(2,5,6,21)            -0.0137         estimate D2E/DX2                !
 ! D31   D(4,5,6,8)             -0.003          estimate D2E/DX2                !
 ! D32   D(4,5,6,21)           179.9752         estimate D2E/DX2                !
 ! D33   D(5,6,8,7)             -0.0022         estimate D2E/DX2                !
 ! D34   D(5,6,8,11)           179.9621         estimate D2E/DX2                !
 ! D35   D(21,6,8,7)          -179.9825         estimate D2E/DX2                !
 ! D36   D(21,6,8,11)           -0.0182         estimate D2E/DX2                !
 ! D37   D(5,6,21,13)         -179.8993         estimate D2E/DX2                !
 ! D38   D(5,6,21,19)            0.0903         estimate D2E/DX2                !
 ! D39   D(8,6,21,13)            0.0759         estimate D2E/DX2                !
 ! D40   D(8,6,21,19)         -179.9345         estimate D2E/DX2                !
 ! D41   D(4,7,8,6)              0.0063         estimate D2E/DX2                !
 ! D42   D(4,7,8,11)          -179.9574         estimate D2E/DX2                !
 ! D43   D(10,7,8,6)          -179.9947         estimate D2E/DX2                !
 ! D44   D(10,7,8,11)            0.0416         estimate D2E/DX2                !
 ! D45   D(21,13,14,15)          0.0261         estimate D2E/DX2                !
 ! D46   D(21,13,14,22)       -179.9956         estimate D2E/DX2                !
 ! D47   D(25,13,14,15)       -179.9769         estimate D2E/DX2                !
 ! D48   D(25,13,14,22)          0.0014         estimate D2E/DX2                !
 ! D49   D(14,13,21,6)         179.9391         estimate D2E/DX2                !
 ! D50   D(14,13,21,19)         -0.0508         estimate D2E/DX2                !
 ! D51   D(25,13,21,6)          -0.0576         estimate D2E/DX2                !
 ! D52   D(25,13,21,19)        179.9525         estimate D2E/DX2                !
 ! D53   D(14,13,25,24)          0.0013         estimate D2E/DX2                !
 ! D54   D(21,13,25,24)        179.9981         estimate D2E/DX2                !
 ! D55   D(13,14,15,16)        179.9954         estimate D2E/DX2                !
 ! D56   D(13,14,15,17)          0.0051         estimate D2E/DX2                !
 ! D57   D(22,14,15,16)          0.022          estimate D2E/DX2                !
 ! D58   D(22,14,15,17)       -179.9683         estimate D2E/DX2                !
 ! D59   D(13,14,22,23)        179.9976         estimate D2E/DX2                !
 ! D60   D(13,14,22,24)         -0.0033         estimate D2E/DX2                !
 ! D61   D(15,14,22,23)         -0.0268         estimate D2E/DX2                !
 ! D62   D(15,14,22,24)        179.9723         estimate D2E/DX2                !
 ! D63   D(14,15,17,18)        179.993          estimate D2E/DX2                !
 ! D64   D(14,15,17,19)         -0.0107         estimate D2E/DX2                !
 ! D65   D(16,15,17,18)          0.0029         estimate D2E/DX2                !
 ! D66   D(16,15,17,19)        179.9992         estimate D2E/DX2                !
 ! D67   D(15,17,19,20)       -179.997          estimate D2E/DX2                !
 ! D68   D(15,17,19,21)         -0.0165         estimate D2E/DX2                !
 ! D69   D(18,17,19,20)         -0.0006         estimate D2E/DX2                !
 ! D70   D(18,17,19,21)        179.9799         estimate D2E/DX2                !
 ! D71   D(17,19,21,6)        -179.9433         estimate D2E/DX2                !
 ! D72   D(17,19,21,13)          0.0468         estimate D2E/DX2                !
 ! D73   D(20,19,21,6)           0.0371         estimate D2E/DX2                !
 ! D74   D(20,19,21,13)       -179.9728         estimate D2E/DX2                !
 ! D75   D(14,22,24,25)          0.0037         estimate D2E/DX2                !
 ! D76   D(23,22,24,25)       -179.9972         estimate D2E/DX2                !
 ! D77   D(22,24,25,13)         -0.0028         estimate D2E/DX2                !
 ! D78   D(34,26,27,28)         -0.0262         estimate D2E/DX2                !
 ! D79   D(34,26,27,35)        179.9956         estimate D2E/DX2                !
 ! D80   D(38,26,27,28)        179.9765         estimate D2E/DX2                !
 ! D81   D(38,26,27,35)         -0.0017         estimate D2E/DX2                !
 ! D82   D(27,26,34,3)        -179.9389         estimate D2E/DX2                !
 ! D83   D(27,26,34,32)          0.0508         estimate D2E/DX2                !
 ! D84   D(38,26,34,3)           0.0581         estimate D2E/DX2                !
 ! D85   D(38,26,34,32)       -179.9521         estimate D2E/DX2                !
 ! D86   D(27,26,38,37)         -0.0011         estimate D2E/DX2                !
 ! D87   D(34,26,38,37)       -179.9983         estimate D2E/DX2                !
 ! D88   D(26,27,28,29)       -179.9954         estimate D2E/DX2                !
 ! D89   D(26,27,28,30)         -0.0051         estimate D2E/DX2                !
 ! D90   D(35,27,28,29)         -0.0222         estimate D2E/DX2                !
 ! D91   D(35,27,28,30)        179.9681         estimate D2E/DX2                !
 ! D92   D(26,27,35,36)       -179.9974         estimate D2E/DX2                !
 ! D93   D(26,27,35,37)          0.0036         estimate D2E/DX2                !
 ! D94   D(28,27,35,36)          0.0271         estimate D2E/DX2                !
 ! D95   D(28,27,35,37)       -179.9719         estimate D2E/DX2                !
 ! D96   D(27,28,30,31)       -179.993          estimate D2E/DX2                !
 ! D97   D(27,28,30,32)          0.0107         estimate D2E/DX2                !
 ! D98   D(29,28,30,31)         -0.0028         estimate D2E/DX2                !
 ! D99   D(29,28,30,32)       -179.9991         estimate D2E/DX2                !
 ! D100  D(28,30,32,33)        179.9967         estimate D2E/DX2                !
 ! D101  D(28,30,32,34)          0.0165         estimate D2E/DX2                !
 ! D102  D(31,30,32,33)          0.0003         estimate D2E/DX2                !
 ! D103  D(31,30,32,34)       -179.9799         estimate D2E/DX2                !
 ! D104  D(30,32,34,3)         179.9432         estimate D2E/DX2                !
 ! D105  D(30,32,34,26)         -0.0468         estimate D2E/DX2                !
 ! D106  D(33,32,34,3)          -0.037          estimate D2E/DX2                !
 ! D107  D(33,32,34,26)        179.973          estimate D2E/DX2                !
 ! D108  D(27,35,37,38)         -0.0038         estimate D2E/DX2                !
 ! D109  D(36,35,37,38)        179.9971         estimate D2E/DX2                !
 ! D110  D(35,37,38,26)          0.0029         estimate D2E/DX2                !
 --------------------------------------------------------------------------------
 Trust Radius=3.00D-01 FncErr=1.00D-07 GrdErr=1.00D-06
 Number of steps in this run=    228 maximum allowed number of steps=    228.
 GradGradGradGradGradGradGradGradGradGradGradGradGradGradGradGradGradGrad

                          Input orientation:                          
 ---------------------------------------------------------------------
 Center     Atomic      Atomic             Coordinates (Angstroms)
 Number     Number       Type             X           Y           Z
 ---------------------------------------------------------------------
      1          7           0       -0.808415   -1.148528   -1.858761
      2          6           0       -1.041605    0.245206   -1.816629
      3          6           0       -0.105090   -1.613194   -0.758950
      4          6           0        0.147156   -0.509119    0.052568
      5          6           0       -0.413100    0.649581   -0.564548
      6          6           0       -0.160857    1.753656    0.246972
      7          6           0        0.775664   -0.104744    1.304648
      8          7           0        0.542470    1.288990    1.346781
      9          8           0       -1.646363    0.867879   -2.689282
     10          8           0        1.380422   -0.727416    2.177301
     11          1           0        0.852689    1.897380    2.097667
     12          1           0       -1.118641   -1.756920   -2.609643
     13          6           0       -0.158603    4.168368    1.038401
     14          6           0       -0.542595    5.547533    0.803932
     15          6           0       -1.268743    5.905546   -0.369529
     16          1           0       -1.553712    6.938990   -0.540154
     17          6           0       -1.593199    4.916614   -1.266408
     18          1           0       -2.145753    5.161518   -2.168027
     19          6           0       -1.223601    3.560518   -1.050254
     20          1           0       -1.506009    2.817923   -1.792663
     21          6           0       -0.515056    3.149834    0.073686
     22          6           0       -0.097488    6.343073    1.853582
     23          1           0       -0.218858    7.410346    1.984521
     24         16           0        0.718931    5.372194    2.989539
     25          7           0        0.519922    3.939963    2.170342
     26          6           0       -0.107350   -4.027907   -1.550375
     27          6           0        0.276636   -5.407074   -1.315903
     28          6           0        1.002782   -5.765087   -0.142442
     29          1           0        1.287747   -6.798531    0.028188
     30          6           0        1.327242   -4.776154    0.754435
     31          1           0        1.879795   -5.021059    1.656054
     32          6           0        0.957649   -3.420057    0.538279
     33          1           0        1.240056   -2.677462    1.280688
     34          6           0        0.249106   -3.009373   -0.585662
     35          6           0       -0.168473   -6.202614   -2.365553
     36          1           0       -0.047109   -7.269887   -2.496488
     37         16           0       -0.984879   -5.231731   -3.501516
     38          7           0       -0.785867   -3.799501   -2.682321
 ---------------------------------------------------------------------
                    Distance matrix (angstroms):
                    1          2          3          4          5
     1  N    0.000000
     2  C    1.413735   0.000000
     3  C    1.385700   2.334394   0.000000
     4  C    2.230502   2.340098   1.393259   0.000000
     5  C    2.250435   1.458165   2.291902   1.427342   0.000000
     6  C    3.643640   2.703625   3.514352   2.291902   1.393260
     7  C    3.688624   3.628678   2.703625   1.458165   2.340098
     8  N    4.247574   3.688623   3.643640   2.250435   2.230501
     9  O    2.336198   1.230844   3.501061   3.553952   2.466391
    10  O    4.610655   4.771130   3.407773   2.466392   3.553952
    11  H    5.262143   4.651854   4.626201   3.235961   3.201033
    12  H    1.014990   2.154835   2.114949   3.201034   3.235962
    13  C    6.089761   4.931743   6.054733   4.790015   3.875058
    14  C    7.210952   5.935573   7.342344   6.141933   5.087184
    15  C    7.224242   5.846806   7.618214   6.582618   5.328726
    16  H    8.228131   6.833622   8.676764   7.662806   6.392046
    17  C    6.144324   4.735932   6.716426   5.848685   4.482501
    18  H    6.457616   5.051014   7.214328   6.507273   5.092230
    19  C    4.795954   3.407601   5.301247   4.433637   3.060454
    20  H    4.027870   2.614406   4.760875   4.148137   2.721107
    21  C    4.721899   3.505340   4.852607   3.718455   2.582441
    22  C    8.391126   7.179540   8.374220   7.089149   6.193772
    23  H    9.400676   8.152600   9.432065   8.159922   7.227961
    24  S    8.267927   7.244636   7.970309   6.598679   6.017982
    25  N    6.625020   5.655575   6.309433   4.941483   4.379129
    26  C    2.979500   4.382148   2.541102   3.875057   4.790014
    27  C    4.428007   5.825526   3.853497   5.087184   6.141933
    28  C    5.247743   6.565519   4.341161   5.328726   6.582618
    29  H    6.314824   7.644832   5.426537   6.392045   7.662806
    30  C    4.954745   6.118485   3.787641   4.482500   5.848684
    31  H    5.880212   6.951809   4.624452   5.092230   6.507273
    32  C    3.744947   4.793408   2.465151   3.060453   4.433637
    33  H    4.048458   4.831287   2.664997   2.721106   4.148136
    34  C    2.490357   3.711267   1.450793   2.582441   3.718455
    35  C    5.119585   6.529783   4.862917   6.193772   7.089149
    36  H    6.201397   7.611035   5.917818   7.227960   8.159921
    37  S    4.404808   5.730524   4.624879   6.017980   6.598677
    38  N    2.776043   4.144210   2.990443   4.379128   4.941482
                    6          7          8          9         10
     6  C    0.000000
     7  C    2.334395   0.000000
     8  N    1.385700   1.413736   0.000000
     9  O    3.407773   4.771131   4.610654   0.000000
    10  O    3.501061   1.230844   2.336198   5.948951   0.000000
    11  H    2.114948   2.154835   1.014990   5.497273   2.678507
    12  H    4.626202   4.651855   5.262143   2.678508   5.497275
    13  C    2.541102   4.382149   2.979500   5.196372   5.256842
    14  C    3.853496   5.825526   4.428006   5.943064   6.705156
    15  C    4.341161   6.565520   5.247743   5.558951   7.582915
    16  H    5.426537   7.644833   6.314824   6.440941   8.646819
    17  C    3.787641   6.118486   4.954745   4.291812   7.249595
    18  H    4.624452   6.951810   5.880212   4.353899   8.123751
    19  C    2.465151   4.793409   3.744946   3.180479   5.965268
    20  H    2.664997   4.831289   4.048458   2.150883   6.054876
    21  C    1.450792   3.711267   2.490356   3.757814   4.801156
    22  C    4.862917   6.529783   5.119585   7.281097   7.230548
    23  H    5.917819   7.611037   6.201398   8.166155   8.295663
    24  S    4.624880   5.730526   4.404810   7.624466   6.188905
    25  N    2.990443   4.144211   2.776044   6.143813   4.746044
    26  C    6.054733   4.931742   6.089760   5.256842   5.196371
    27  C    7.342345   5.935572   7.210952   6.705157   5.943065
    28  C    7.618215   5.846806   7.224242   7.582915   5.558952
    29  H    8.676763   6.833620   8.228130   8.646819   6.440940
    30  C    6.716426   4.735931   6.144324   7.249595   4.291813
    31  H    7.214329   5.051014   6.457616   8.123751   4.353900
    32  C    5.301247   3.407600   4.795954   5.965268   3.180479
    33  H    4.760875   2.614405   4.027870   6.054876   2.150883
    34  C    4.852607   3.505339   4.721898   4.801156   3.757814
    35  C    8.374221   7.179540   8.391126   7.230548   7.281098
    36  H    9.432064   8.152599   9.400675   8.295663   8.166154
    37  S    7.970308   7.244634   8.267925   6.188904   7.624465
    38  N    6.309433   5.655575   6.625019   4.746044   6.143813
                   11         12         13         14         15
    11  H    0.000000
    12  H    6.276848   0.000000
    13  C    2.702248   7.024168   0.000000
    14  C    4.116331   8.083276   1.450697   0.000000
    15  C    5.162647   7.984612   2.496491   1.425649   0.000000
    16  H    6.177920   8.949353   3.480591   2.182906   1.085508
    17  C    5.139566   6.823895   2.816040   2.405854   1.373918
    18  H    6.151536   7.008193   3.900807   3.398774   2.134788
    19  C    4.121458   5.542369   2.422020   2.801786   2.442249
    20  H    4.641716   4.663336   3.413814   3.888604   3.408082
    21  C    2.745153   5.625016   1.447462   2.506587   2.891095
    22  C    4.552648   9.304462   2.323273   1.390241   2.550586
    23  H    5.617278  10.293431   3.377750   2.229051   2.984666
    24  S    3.589939   9.249420   2.454832   2.529638   3.939372
    25  N    2.070787   7.614960   1.339349   2.362266   3.676110
    26  C    7.024166   2.702247   8.595540   9.870220  10.070587
    27  C    8.083276   4.116332   9.870221  11.187862  11.456840
    28  C    7.984611   5.162647  10.070588  11.456840  11.891807
    29  H    8.949351   6.177920  11.107895  12.505088  12.964852
    30  C    6.823894   5.139566   9.071540  10.491771  11.049939
    31  H    7.008193   6.151536   9.433034  10.876085  11.550194
    32  C    5.542368   4.121458   7.686373   9.096097   9.630566
    33  H    4.663334   4.641716   6.991448   8.429453   9.093147
    34  C    5.625015   2.745154   7.370466   8.705079   9.045792
    35  C    9.304462   4.552647  10.915323  12.175860  12.320805
    36  H   10.293429   5.617276  11.972533  13.244793  13.401805
    37  S    9.249418   3.589936  10.471649  11.615723  11.572764
    38  N    7.614959   2.070787   8.816131   9.978987   9.988499
                   16         17         18         19         20
    16  H    0.000000
    17  C    2.149188   0.000000
    18  H    2.481913   1.085454   0.000000
    19  C    3.432674   1.422084   2.159394   0.000000
    20  H    4.307464   2.165422   2.458172   1.087370   0.000000
    21  C    3.976595   2.465716   3.425102   1.390661   2.139021
    22  C    2.864555   3.742496   4.665276   4.176483   5.263622
    23  H    2.894477   4.321580   5.100373   5.004053   6.083932
    24  S    4.480903   4.864831   5.903498   4.834825   5.860385
    25  N    4.543227   4.150949   5.236360   3.681860   4.590074
    26  C   11.107895   9.071540   9.433033   7.686373   6.991448
    27  C   12.505089  10.491771  10.876085   9.096097   8.429454
    28  C   12.964853  11.049939  11.550193   9.630567   9.093147
    29  H   14.039814  12.133443  12.635468  10.713534  10.178249
    30  C   12.133444  10.322913  10.925191   8.903022   8.496177
    31  H   12.635469  10.925192  11.597996   9.518331   9.209069
    32  C   10.713534   8.903022   9.518331   7.483964   7.100373
    33  H   10.178249   8.496177   9.209069   7.100373   6.869179
    34  C   10.110497   8.165707   8.660409   6.748939   6.204406
    35  C   13.339892  11.263889  11.536557   9.907676   9.137138
    36  H   14.421833  12.345619  12.611583  10.989695  10.217028
    37  S   12.538727  10.409355  10.542554   9.130680   8.245525
    38  N   10.976960   8.867201   9.078196   7.551499   6.715683
                   21         22         23         24         25
    21  C    0.000000
    22  C    3.679561   0.000000
    23  H    4.678780   1.082103   0.000000
    24  S    3.868308   1.702805   2.458368   0.000000
    25  N    2.468086   2.501294   3.553010   1.661919   0.000000
    26  C    7.370466  10.915322  11.972533  10.471650   8.816131
    27  C    8.705079  12.175860  13.244794  11.615725   9.978988
    28  C    9.045792  12.320805  13.401806  11.572766   9.988499
    29  H   10.110496  13.339891  14.421834  12.538728  10.976959
    30  C    8.165707  11.263889  12.345619  10.409356   8.867201
    31  H    8.660409  11.536558  12.611585  10.542556   9.078197
    32  C    6.748939   9.907676  10.989696   9.130681   7.551498
    33  H    6.204406   9.137138  10.217029   8.245526   6.715682
    34  C    6.241355   9.671519  10.742224   9.124334   7.480787
    35  C    9.671520  13.236329  14.291199  12.784392  11.131941
    36  H   10.742223  14.291198  15.349859  13.802374  12.155721
    37  S    9.124332  12.784390  13.802373  12.549103  10.888268
    38  N    7.480787  11.131940  12.155722  10.888269   9.227823
                   26         27         28         29         30
    26  C    0.000000
    27  C    1.450698   0.000000
    28  C    2.496490   1.425648   0.000000
    29  H    3.480591   2.182906   1.085507   0.000000
    30  C    2.816039   2.405854   1.373918   2.149187   0.000000
    31  H    3.900805   3.398773   2.134787   2.481910   1.085454
    32  C    2.422020   2.801786   2.442250   3.432673   1.422083
    33  H    3.413813   3.888604   3.408082   4.307463   2.165422
    34  C    1.447461   2.506587   2.891095   3.976595   2.465715
    35  C    2.323274   1.390241   2.550586   2.864558   3.742496
    36  H    3.377750   2.229050   2.984665   2.894479   4.321579
    37  S    2.454832   2.529638   3.939371   4.480904   4.864830
    38  N    1.339349   2.362266   3.676109   4.543227   4.150948
                   31         32         33         34         35
    31  H    0.000000
    32  C    2.159394   0.000000
    33  H    2.458173   1.087369   0.000000
    34  C    3.425101   1.390661   2.139021   0.000000
    35  C    4.665276   4.176484   5.263623   3.679561   0.000000
    36  H    5.100372   5.004052   6.083931   4.678780   1.082102
    37  S    5.903496   4.834824   5.860384   3.868307   1.702805
    38  N    5.236359   3.681860   4.590074   2.468086   2.501294
                   36         37         38
    36  H    0.000000
    37  S    2.458368   0.000000
    38  N    3.553009   1.661917   0.000000
 Symmetry turned off by external request.
 Stoichiometry    C20H10N4O2S2(1-,2)
 Framework group  C1[X(C20H10N4O2S2)]
 Deg. of freedom   108
 Full point group                 C1      NOp   1
 Rotational constants (GHZ):      0.4341146      0.0706148      0.0607354
 Standard basis: 6-31+G(d,p) (6D, 7F)
 Integral buffers will be    262144 words long.
 Raffenetti 2 integral format.
 Two-electron integral symmetry is turned off.
   590 basis functions,  1014 primitive gaussians,   590 cartesian basis functions
   104 alpha electrons      103 beta electrons
       nuclear repulsion energy      2617.2813234888 Hartrees.
 NAtoms=   38 NActive=   38 NUniq=   38 SFac= 1.00D+00 NAtFMM=   50 NAOKFM=F Big=F
 One-electron integrals computed using PRISM.
 NBasis=   590 RedAO= T  NBF=   590
 NBsUse=   580 1.00D-06 NBFU=   580
 Harris functional with IExCor=  402 diagonalized for initial guess.
 ExpMin= 4.05D-02 ExpMax= 2.19D+04 ExpMxC= 3.30D+03 IAcc=2 IRadAn=         0 AccDes= 0.00D+00
 HarFok:  IExCor=  402 AccDes= 0.00D+00 IRadAn=         0 IDoV= 1
 ScaDFX=  1.000000  1.000000  1.000000  1.000000
 FoFCou: FMM=F IPFlag=           0 FMFlag=      100000 FMFlg1=           0
         NFxFlg=           0 DoJE=T BraDBF=F KetDBF=T FulRan=T
         Omega=  0.000000  0.000000  1.000000  0.000000  0.000000 ICntrl=     500 IOpCl=  0
         NMat0=    1 NMatS0=    1 NMatT0=    0 NMatD0=    1 NMtDS0=    0 NMtDT0=    0
         I1Cent=           4 NGrid=           0.
 Symmetry not used in FoFCou.
 Initial guess <Sx>= 0.0000 <Sy>= 0.0000 <Sz>= 0.5000 <S**2>= 0.7500 S= 0.5000
 Requested convergence on RMS density matrix=1.00D-08 within 128 cycles.
 Requested convergence on MAX density matrix=1.00D-06.
 Requested convergence on             energy=1.00D-06.
 No special actions if energy rises.
 EnCoef did     2 forward-backward iterations
 EnCoef did     2 forward-backward iterations
 Restarting incremental Fock formation.
 DSYEVD returned Info=      295728 IAlg= 4 N=   580 NDim=   580 NE2=       55469 trying DSYEV.
 SCF Done:  E(UB3LYP) =  -1934.11971551     A.U. after   25 cycles
             Convg  =    0.7980D-08             -V/T =  2.0068
 <Sx>= 0.0000 <Sy>= 0.0000 <Sz>= 0.5000 <S**2>= 0.7958 S= 0.5226
 <L.S>= 0.000000000000E+00
 Annihilation of the first spin contaminant:
 S**2 before annihilation     0.7958,   after     0.7512

 **********************************************************************

            Population analysis using the SCF density.

 **********************************************************************

 Alpha  occ. eigenvalues --  -88.85513 -88.85513 -19.00943 -19.00943 -14.26453
 Alpha  occ. eigenvalues --  -14.26453 -14.25603 -14.25603 -10.17593 -10.17592
 Alpha  occ. eigenvalues --  -10.14608 -10.14608 -10.13889 -10.13889 -10.13316
 Alpha  occ. eigenvalues --  -10.13316 -10.12034 -10.12034 -10.10758 -10.10758
 Alpha  occ. eigenvalues --  -10.10042 -10.10042 -10.09877 -10.09877 -10.08554
 Alpha  occ. eigenvalues --  -10.08554 -10.06935 -10.06889  -7.91182  -7.91182
 Alpha  occ. eigenvalues --   -5.87680  -5.87680  -5.87186  -5.87186  -5.86932
 Alpha  occ. eigenvalues --   -5.86931  -0.92499  -0.92026  -0.87907  -0.87901
 Alpha  occ. eigenvalues --   -0.85102  -0.83725  -0.75182  -0.75177  -0.71570
 Alpha  occ. eigenvalues --   -0.71540  -0.68415  -0.66236  -0.65320  -0.65266
 Alpha  occ. eigenvalues --   -0.65215  -0.59906  -0.57279  -0.55112  -0.53378
 Alpha  occ. eigenvalues --   -0.52697  -0.50935  -0.49870  -0.49304  -0.49047
 Alpha  occ. eigenvalues --   -0.45110  -0.43242  -0.42342  -0.41374  -0.39440
 Alpha  occ. eigenvalues --   -0.38902  -0.37924  -0.37326  -0.37165  -0.36140
 Alpha  occ. eigenvalues --   -0.35036  -0.34750  -0.33775  -0.33735  -0.33295
 Alpha  occ. eigenvalues --   -0.33056  -0.32846  -0.31609  -0.31309  -0.30252
 Alpha  occ. eigenvalues --   -0.28133  -0.28068  -0.27117  -0.26822  -0.26493
 Alpha  occ. eigenvalues --   -0.26488  -0.26346  -0.25795  -0.25591  -0.23760
 Alpha  occ. eigenvalues --   -0.23122  -0.20929  -0.20628  -0.20347  -0.20012
 Alpha  occ. eigenvalues --   -0.16689  -0.16631  -0.15661  -0.14398  -0.14129
 Alpha  occ. eigenvalues --   -0.13958  -0.13465  -0.07897  -0.02880
 Alpha virt. eigenvalues --    0.00972   0.03771   0.07206   0.07239   0.08277
 Alpha virt. eigenvalues --    0.08358   0.08359   0.09554   0.09584   0.10535
 Alpha virt. eigenvalues --    0.10540   0.10546   0.10759   0.10966   0.11728
 Alpha virt. eigenvalues --    0.12114   0.12312   0.12708   0.13052   0.13190
 Alpha virt. eigenvalues --    0.13835   0.14156   0.14538   0.14957   0.15226
 Alpha virt. eigenvalues --    0.15323   0.15742   0.16201   0.16537   0.17193
 Alpha virt. eigenvalues --    0.17225   0.18223   0.18549   0.18630   0.18630
 Alpha virt. eigenvalues --    0.18882   0.18935   0.19788   0.20239   0.20571
 Alpha virt. eigenvalues --    0.20917   0.21096   0.21481   0.21501   0.21994
 Alpha virt. eigenvalues --    0.22705   0.22784   0.22797   0.23005   0.23232
 Alpha virt. eigenvalues --    0.24156   0.24406   0.24568   0.24778   0.24984
 Alpha virt. eigenvalues --    0.25483   0.25640   0.25798   0.25804   0.26746
 Alpha virt. eigenvalues --    0.26885   0.27254   0.27310   0.27467   0.27664
 Alpha virt. eigenvalues --    0.27956   0.27975   0.28666   0.28811   0.28847
 Alpha virt. eigenvalues --    0.29431   0.29485   0.29745   0.30149   0.30528
 Alpha virt. eigenvalues --    0.30866   0.31270   0.31731   0.31912   0.32059
 Alpha virt. eigenvalues --    0.32181   0.32559   0.32648   0.32986   0.33243
 Alpha virt. eigenvalues --    0.33576   0.33615   0.34111   0.34300   0.34486
 Alpha virt. eigenvalues --    0.35390   0.35450   0.35580   0.35971   0.36120
 Alpha virt. eigenvalues --    0.36322   0.36925   0.37041   0.37391   0.37855
 Alpha virt. eigenvalues --    0.37877   0.38249   0.38399   0.38674   0.38685
 Alpha virt. eigenvalues --    0.39009   0.39431   0.39494   0.39540   0.39649
 Alpha virt. eigenvalues --    0.40801   0.41131   0.41604   0.42054   0.42118
 Alpha virt. eigenvalues --    0.43003   0.43076   0.43397   0.43402   0.43745
 Alpha virt. eigenvalues --    0.43939   0.44153   0.45046   0.45598   0.46749
 Alpha virt. eigenvalues --    0.47032   0.47099   0.48561   0.49246   0.49725
 Alpha virt. eigenvalues --    0.50068   0.51163   0.51221   0.52617   0.52911
 Alpha virt. eigenvalues --    0.53122   0.54982   0.55013   0.55129   0.55745
 Alpha virt. eigenvalues --    0.56265   0.58491   0.58706   0.58866   0.58945
 Alpha virt. eigenvalues --    0.59252   0.60323   0.60639   0.61199   0.61849
 Alpha virt. eigenvalues --    0.61896   0.62850   0.63723   0.66614   0.66903
 Alpha virt. eigenvalues --    0.69591   0.70033   0.71000   0.71037   0.72722
 Alpha virt. eigenvalues --    0.72839   0.73995   0.74401   0.74808   0.75623
 Alpha virt. eigenvalues --    0.77169   0.77829   0.77866   0.78584   0.78781
 Alpha virt. eigenvalues --    0.79556   0.79637   0.81648   0.81763   0.82380
 Alpha virt. eigenvalues --    0.82579   0.82861   0.83337   0.83776   0.84171
 Alpha virt. eigenvalues --    0.84245   0.84641   0.85649   0.86412   0.86462
 Alpha virt. eigenvalues --    0.86578   0.86822   0.87449   0.87632   0.88955
 Alpha virt. eigenvalues --    0.89836   0.89871   0.90350   0.91198   0.91532
 Alpha virt. eigenvalues --    0.92372   0.94237   0.95065   0.95463   0.95474
 Alpha virt. eigenvalues --    0.95904   0.96102   0.96210   0.97442   0.98698
 Alpha virt. eigenvalues --    0.98821   0.99381   1.00575   1.01357   1.01434
 Alpha virt. eigenvalues --    1.05021   1.06136   1.06936   1.07174   1.07827
 Alpha virt. eigenvalues --    1.09482   1.09825   1.10571   1.11205   1.12113
 Alpha virt. eigenvalues --    1.12260   1.13819   1.14100   1.14777   1.15452
 Alpha virt. eigenvalues --    1.15565   1.15887   1.17208   1.17567   1.18101
 Alpha virt. eigenvalues --    1.20121   1.21037   1.21408   1.22254   1.23489
 Alpha virt. eigenvalues --    1.24912   1.25047   1.27557   1.28120   1.29825
 Alpha virt. eigenvalues --    1.30026   1.30978   1.31032   1.31428   1.32181
 Alpha virt. eigenvalues --    1.32628   1.33197   1.33421   1.34494   1.36467
 Alpha virt. eigenvalues --    1.36782   1.37264   1.37270   1.38296   1.38966
 Alpha virt. eigenvalues --    1.39515   1.39569   1.40093   1.40533   1.40735
 Alpha virt. eigenvalues --    1.41246   1.41654   1.42139   1.42851   1.43360
 Alpha virt. eigenvalues --    1.43787   1.45266   1.46013   1.46809   1.47223
 Alpha virt. eigenvalues --    1.47621   1.47777   1.48041   1.48153   1.48250
 Alpha virt. eigenvalues --    1.49029   1.49560   1.50766   1.50944   1.51092
 Alpha virt. eigenvalues --    1.51896   1.52029   1.53332   1.54344   1.55801
 Alpha virt. eigenvalues --    1.56156   1.59761   1.59938   1.62003   1.63680
 Alpha virt. eigenvalues --    1.64646   1.66226   1.69944   1.70562   1.74562
 Alpha virt. eigenvalues --    1.74894   1.75505   1.75583   1.75598   1.77583
 Alpha virt. eigenvalues --    1.81543   1.82964   1.82991   1.84370   1.84689
 Alpha virt. eigenvalues --    1.87179   1.87712   1.88454   1.90265   1.90266
 Alpha virt. eigenvalues --    1.90959   1.91715   1.93050   1.94544   1.94616
 Alpha virt. eigenvalues --    1.95259   1.95941   1.97377   1.97558   1.97610
 Alpha virt. eigenvalues --    1.99687   2.00352   2.01692   2.02880   2.03139
 Alpha virt. eigenvalues --    2.05027   2.05847   2.06070   2.06229   2.06540
 Alpha virt. eigenvalues --    2.07143   2.07547   2.08500   2.09009   2.09686
 Alpha virt. eigenvalues --    2.10694   2.10775   2.14384   2.14525   2.16725
 Alpha virt. eigenvalues --    2.17162   2.17919   2.18962   2.21418   2.22150
 Alpha virt. eigenvalues --    2.23637   2.24503   2.25614   2.26524   2.26737
 Alpha virt. eigenvalues --    2.27831   2.28422   2.29851   2.31265   2.32213
 Alpha virt. eigenvalues --    2.34243   2.35816   2.35938   2.36043   2.38418
 Alpha virt. eigenvalues --    2.39917   2.41047   2.41272   2.43643   2.43866
 Alpha virt. eigenvalues --    2.44185   2.45157   2.48444   2.48614   2.49243
 Alpha virt. eigenvalues --    2.50894   2.50933   2.51869   2.53288   2.54052
 Alpha virt. eigenvalues --    2.55137   2.55542   2.57705   2.58146   2.58190
 Alpha virt. eigenvalues --    2.59074   2.59688   2.59895   2.59902   2.61095
 Alpha virt. eigenvalues --    2.61176   2.63185   2.64575   2.65727   2.66818
 Alpha virt. eigenvalues --    2.69133   2.69309   2.69486   2.69740   2.72850
 Alpha virt. eigenvalues --    2.73021   2.73371   2.74790   2.75046   2.75808
 Alpha virt. eigenvalues --    2.77281   2.77485   2.80066   2.80113   2.81365
 Alpha virt. eigenvalues --    2.84109   2.84366   2.84777   2.87319   2.89460
 Alpha virt. eigenvalues --    2.90722   2.92145   2.93367   2.95166   2.96009
 Alpha virt. eigenvalues --    2.96446   2.99880   3.00675   3.03156   3.06506
 Alpha virt. eigenvalues --    3.10109   3.12005   3.12901   3.15410   3.15973
 Alpha virt. eigenvalues --    3.17270   3.20693   3.20761   3.24173   3.27191
 Alpha virt. eigenvalues --    3.32738   3.33260   3.35388   3.39543   3.39710
 Alpha virt. eigenvalues --    3.39991   3.42504   3.42993   3.52058   3.55971
 Alpha virt. eigenvalues --    3.56117   3.56580   3.58933   3.63617   3.73067
 Alpha virt. eigenvalues --    3.73980   3.90806   3.90979   4.08453   4.08473
 Alpha virt. eigenvalues --    4.27615   4.29615   4.39031   4.40276   4.43030
 Alpha virt. eigenvalues --    4.43721   4.44761   4.45702   4.48794   4.49337
 Alpha virt. eigenvalues --    4.49745   4.50885   4.56565   4.58332   4.60714
 Alpha virt. eigenvalues --    4.63021   4.64379   4.68986   4.70988   4.74830
 Alpha virt. eigenvalues --    4.82779   4.90612   4.99148   5.00325   5.18030
 Alpha virt. eigenvalues --    5.25791
  Beta  occ. eigenvalues --  -88.85487 -88.85487 -19.00857 -19.00857 -14.26488
  Beta  occ. eigenvalues --  -14.26488 -14.25599 -14.25599 -10.17569 -10.17568
  Beta  occ. eigenvalues --  -10.14598 -10.14598 -10.13697 -10.13696 -10.13118
  Beta  occ. eigenvalues --  -10.13118 -10.12108 -10.12108 -10.10810 -10.10810
  Beta  occ. eigenvalues --  -10.09966 -10.09966 -10.09773 -10.09773 -10.08310
  Beta  occ. eigenvalues --  -10.08309 -10.06985 -10.06940  -7.91157  -7.91157
  Beta  occ. eigenvalues --   -5.87666  -5.87666  -5.87176  -5.87176  -5.86842
  Beta  occ. eigenvalues --   -5.86842  -0.92366  -0.91885  -0.87890  -0.87886
  Beta  occ. eigenvalues --   -0.84970  -0.83581  -0.74983  -0.74979  -0.71366
  Beta  occ. eigenvalues --   -0.71332  -0.68407  -0.65968  -0.65139  -0.65096
  Beta  occ. eigenvalues --   -0.65060  -0.59610  -0.56794  -0.55046  -0.53108
  Beta  occ. eigenvalues --   -0.52477  -0.50814  -0.49771  -0.49198  -0.48900
  Beta  occ. eigenvalues --   -0.45041  -0.43115  -0.42217  -0.41355  -0.39281
  Beta  occ. eigenvalues --   -0.38738  -0.37807  -0.37242  -0.37065  -0.36012
  Beta  occ. eigenvalues --   -0.34949  -0.34458  -0.33675  -0.33563  -0.33240
  Beta  occ. eigenvalues --   -0.32829  -0.32791  -0.31496  -0.31218  -0.29881
  Beta  occ. eigenvalues --   -0.28012  -0.27934  -0.27034  -0.26747  -0.26393
  Beta  occ. eigenvalues --   -0.26362  -0.25722  -0.25711  -0.24964  -0.23102
  Beta  occ. eigenvalues --   -0.22490  -0.20946  -0.20641  -0.19875  -0.19523
  Beta  occ. eigenvalues --   -0.16121  -0.16042  -0.15581  -0.14255  -0.13887
  Beta  occ. eigenvalues --   -0.13533  -0.13024  -0.06885
  Beta virt. eigenvalues --    0.01145   0.02406   0.04717   0.07232   0.07265
  Beta virt. eigenvalues --    0.08294   0.08374   0.09002   0.09571   0.09602
  Beta virt. eigenvalues --    0.10537   0.10758   0.10812   0.10819   0.11342
  Beta virt. eigenvalues --    0.11741   0.12318   0.12356   0.12856   0.13063
  Beta virt. eigenvalues --    0.13201   0.13841   0.14508   0.14543   0.15042
  Beta virt. eigenvalues --    0.15306   0.15336   0.16017   0.16215   0.16535
  Beta virt. eigenvalues --    0.17231   0.17314   0.18269   0.18623   0.18648
  Beta virt. eigenvalues --    0.18816   0.18911   0.19023   0.19827   0.20267
  Beta virt. eigenvalues --    0.20644   0.21003   0.21318   0.21491   0.21519
  Beta virt. eigenvalues --    0.22033   0.22826   0.23021   0.23145   0.23186
  Beta virt. eigenvalues --    0.23272   0.24199   0.24480   0.24592   0.24830
  Beta virt. eigenvalues --    0.25035   0.25514   0.25683   0.25807   0.25934
  Beta virt. eigenvalues --    0.26758   0.26924   0.27328   0.27360   0.27533
  Beta virt. eigenvalues --    0.27707   0.28040   0.28120   0.28657   0.28864
  Beta virt. eigenvalues --    0.29216   0.29468   0.29881   0.29928   0.30210
  Beta virt. eigenvalues --    0.30586   0.30925   0.31251   0.31846   0.31918
  Beta virt. eigenvalues --    0.32105   0.32253   0.32613   0.32692   0.33053
  Beta virt. eigenvalues --    0.33346   0.33611   0.33674   0.34172   0.34410
  Beta virt. eigenvalues --    0.34547   0.35359   0.35470   0.35651   0.36111
  Beta virt. eigenvalues --    0.36192   0.36390   0.36954   0.37081   0.37439
  Beta virt. eigenvalues --    0.37884   0.37937   0.38327   0.38403   0.38712
  Beta virt. eigenvalues --    0.38750   0.39036   0.39477   0.39513   0.39597
  Beta virt. eigenvalues --    0.39702   0.40868   0.41187   0.41669   0.42072
  Beta virt. eigenvalues --    0.42181   0.43049   0.43098   0.43476   0.43498
  Beta virt. eigenvalues --    0.43814   0.44025   0.44221   0.45128   0.45789
  Beta virt. eigenvalues --    0.46815   0.47076   0.47124   0.48643   0.49374
  Beta virt. eigenvalues --    0.49770   0.50143   0.51236   0.51260   0.52666
  Beta virt. eigenvalues --    0.52956   0.53164   0.55048   0.55066   0.55188
  Beta virt. eigenvalues --    0.55788   0.56386   0.58638   0.58761   0.58890
  Beta virt. eigenvalues --    0.59087   0.59272   0.60380   0.60701   0.61296
  Beta virt. eigenvalues --    0.61890   0.61951   0.62889   0.63784   0.66672
  Beta virt. eigenvalues --    0.66985   0.69750   0.70092   0.71087   0.71168
  Beta virt. eigenvalues --    0.73400   0.73514   0.74063   0.74481   0.74853
  Beta virt. eigenvalues --    0.75639   0.77249   0.78061   0.78140   0.78881
  Beta virt. eigenvalues --    0.79012   0.79673   0.79894   0.81830   0.82159
  Beta virt. eigenvalues --    0.82642   0.82737   0.82990   0.83624   0.84278
  Beta virt. eigenvalues --    0.84332   0.84358   0.84983   0.85698   0.86588
  Beta virt. eigenvalues --    0.86727   0.86903   0.87008   0.87539   0.87947
  Beta virt. eigenvalues --    0.89056   0.89960   0.90252   0.90890   0.91353
  Beta virt. eigenvalues --    0.91603   0.92438   0.94310   0.95111   0.95527
  Beta virt. eigenvalues --    0.95550   0.96020   0.96220   0.96404   0.97556
  Beta virt. eigenvalues --    0.98790   0.98925   0.99424   1.00792   1.01412
  Beta virt. eigenvalues --    1.01506   1.05072   1.06212   1.07021   1.07249
  Beta virt. eigenvalues --    1.07878   1.09552   1.09881   1.10631   1.11273
  Beta virt. eigenvalues --    1.12193   1.12321   1.13754   1.14036   1.14876
  Beta virt. eigenvalues --    1.15540   1.15649   1.15982   1.17305   1.17667
  Beta virt. eigenvalues --    1.18192   1.20269   1.21163   1.21494   1.22295
  Beta virt. eigenvalues --    1.23518   1.25009   1.25116   1.27623   1.28296
  Beta virt. eigenvalues --    1.29883   1.30077   1.31075   1.31117   1.31550
  Beta virt. eigenvalues --    1.32424   1.32922   1.33286   1.33501   1.34838
  Beta virt. eigenvalues --    1.36578   1.37073   1.37356   1.37364   1.38354
  Beta virt. eigenvalues --    1.39283   1.39756   1.39885   1.40226   1.40812
  Beta virt. eigenvalues --    1.40864   1.41350   1.41717   1.42438   1.43007
  Beta virt. eigenvalues --    1.43541   1.43885   1.45415   1.46102   1.46890
  Beta virt. eigenvalues --    1.47316   1.47834   1.47983   1.48166   1.48283
  Beta virt. eigenvalues --    1.48308   1.49233   1.49843   1.51007   1.51200
  Beta virt. eigenvalues --    1.51397   1.52148   1.52247   1.53450   1.54456
  Beta virt. eigenvalues --    1.55890   1.56239   1.59822   1.59986   1.62051
  Beta virt. eigenvalues --    1.63765   1.64722   1.66254   1.69999   1.70639
  Beta virt. eigenvalues --    1.74627   1.74994   1.75614   1.76182   1.76197
  Beta virt. eigenvalues --    1.77795   1.81619   1.83054   1.83208   1.84443
  Beta virt. eigenvalues --    1.84761   1.87437   1.87752   1.88638   1.90407
  Beta virt. eigenvalues --    1.90430   1.91034   1.91822   1.93155   1.94723
  Beta virt. eigenvalues --    1.94737   1.95354   1.96103   1.97463   1.97634
  Beta virt. eigenvalues --    1.97847   1.99841   2.00488   2.01964   2.02971
  Beta virt. eigenvalues --    2.03234   2.05174   2.05947   2.06112   2.06418
  Beta virt. eigenvalues --    2.06745   2.07306   2.07812   2.08629   2.09097
  Beta virt. eigenvalues --    2.09881   2.11019   2.11045   2.14532   2.14672
  Beta virt. eigenvalues --    2.16777   2.17313   2.17953   2.19042   2.21562
  Beta virt. eigenvalues --    2.22343   2.23936   2.24714   2.25806   2.26748
  Beta virt. eigenvalues --    2.26838   2.28020   2.28568   2.30025   2.31394
  Beta virt. eigenvalues --    2.32473   2.34602   2.36075   2.36291   2.36344
  Beta virt. eigenvalues --    2.38627   2.40010   2.41178   2.41569   2.43856
  Beta virt. eigenvalues --    2.44049   2.44564   2.45482   2.48549   2.48728
  Beta virt. eigenvalues --    2.49332   2.50945   2.51130   2.52063   2.53455
  Beta virt. eigenvalues --    2.54247   2.55264   2.55657   2.57711   2.58145
  Beta virt. eigenvalues --    2.58450   2.59134   2.59844   2.59936   2.59978
  Beta virt. eigenvalues --    2.61320   2.61335   2.63272   2.64895   2.66099
  Beta virt. eigenvalues --    2.66898   2.69360   2.69434   2.69531   2.69797
  Beta virt. eigenvalues --    2.72903   2.73324   2.73697   2.74976   2.75404
  Beta virt. eigenvalues --    2.75865   2.77335   2.77768   2.80154   2.80342
  Beta virt. eigenvalues --    2.81660   2.84163   2.84648   2.84993   2.87418
  Beta virt. eigenvalues --    2.89613   2.90832   2.92288   2.93567   2.95175
  Beta virt. eigenvalues --    2.96073   2.96496   2.99907   3.00755   3.03257
  Beta virt. eigenvalues --    3.06473   3.10208   3.12043   3.12973   3.15607
  Beta virt. eigenvalues --    3.16062   3.17306   3.20798   3.20849   3.24229
  Beta virt. eigenvalues --    3.27285   3.32847   3.33377   3.35458   3.39559
  Beta virt. eigenvalues --    3.39723   3.40046   3.42563   3.43062   3.52107
  Beta virt. eigenvalues --    3.56051   3.56223   3.56686   3.59012   3.63669
  Beta virt. eigenvalues --    3.73109   3.74010   3.90905   3.91077   4.08517
  Beta virt. eigenvalues --    4.08536   4.27624   4.29608   4.39164   4.40456
  Beta virt. eigenvalues --    4.43111   4.43834   4.44932   4.45825   4.48892
  Beta virt. eigenvalues --    4.49437   4.50173   4.51279   4.56532   4.58400
  Beta virt. eigenvalues --    4.60858   4.63237   4.64590   4.69076   4.71149
  Beta virt. eigenvalues --    4.75013   4.82984   4.90718   4.99299   5.00477
  Beta virt. eigenvalues --    5.18123   5.25880
          Condensed to atoms (all electrons):
              1          2          3          4          5          6
     1  N    7.531741   0.521104  -0.109827  -0.150987  -0.425734  -0.008951
     2  C    0.521104   9.665283  -1.030868  -0.924813  -2.812630  -0.063782
     3  C   -0.109827  -1.030868   8.671084  -0.641243  -0.874860   0.909984
     4  C   -0.150987  -0.924813  -0.641243  11.656314   0.554139  -0.874863
     5  C   -0.425734  -2.812630  -0.874860   0.554139  11.656326  -0.641244
     6  C   -0.008951  -0.063782   0.909984  -0.874863  -0.641244   8.671079
     7  C    0.003610   0.953714  -0.063782  -2.812618  -0.924810  -1.030860
     8  N    0.002257   0.003610  -0.008951  -0.425732  -0.150987  -0.109827
     9  O   -0.096814   0.206053  -0.011558   0.008280   0.117156   0.007120
    10  O   -0.005092  -0.003692   0.007120   0.117157   0.008280  -0.011558
    11  H    0.000084   0.009558  -0.002960  -0.018294   0.063661  -0.007214
    12  H    0.287617  -0.007792  -0.007215   0.063661  -0.018294  -0.002960
    13  C    0.012642   0.042991  -0.148805   0.013972   0.642271  -1.333928
    14  C   -0.003866   0.005148  -0.124228   0.224799   0.268532   0.125582
    15  C    0.002363  -0.067449   0.018607  -0.066494   0.112830  -0.022851
    16  H   -0.000001  -0.000284   0.000008  -0.000069   0.001317   0.000908
    17  C    0.022964   0.094450  -0.054547   0.059456   0.282122  -1.078893
    18  H    0.000007  -0.000114   0.000095  -0.000174  -0.001283  -0.006898
    19  C    0.085276  -0.454126   0.358355   0.145606  -2.199435   0.203011
    20  H    0.002819   0.043545   0.005293  -0.003505   0.017098  -0.058165
    21  C   -0.097937  -0.172487   0.039280   0.406600  -0.012977   0.524154
    22  C    0.000210   0.037277   0.005101  -0.012924  -0.112930  -0.020063
    23  H    0.000000  -0.000018   0.000002   0.000000  -0.000086  -0.001456
    24  S   -0.000012  -0.011310  -0.000264   0.016225   0.000584   0.053758
    25  N   -0.001162   0.003288   0.022590  -0.104684   0.002380   0.075212
    26  C    0.053121   0.217730  -1.333928   0.642272   0.013975  -0.148806
    27  C    0.119893   0.038807   0.125574   0.268530   0.224800  -0.124228
    28  C    0.013598  -0.042978  -0.022849   0.112831  -0.066494   0.018607
    29  H    0.000012   0.000047   0.000908   0.001317  -0.000069   0.000008
    30  C    0.114411   0.056175  -1.078894   0.282122   0.059456  -0.054547
    31  H    0.000018  -0.000035  -0.006898  -0.001283  -0.000174   0.000095
    32  C   -0.242716  -0.589439   0.203008  -2.199428   0.145606   0.358353
    33  H    0.002297   0.001314  -0.058165   0.017098  -0.003505   0.005293
    34  C   -0.118630  -0.479574   0.524163  -0.012975   0.406598   0.039281
    35  C   -0.028553   0.065001  -0.020063  -0.112930  -0.012924   0.005101
    36  H   -0.000053  -0.000049  -0.001456  -0.000086   0.000000   0.000002
    37  S   -0.010906  -0.064885   0.053758   0.000584   0.016225  -0.000264
    38  N    0.030070   0.049568   0.075212   0.002379  -0.104685   0.022590
              7          8          9         10         11         12
     1  N    0.003610   0.002257  -0.096814  -0.005092   0.000084   0.287617
     2  C    0.953714   0.003610   0.206053  -0.003692   0.009558  -0.007792
     3  C   -0.063782  -0.008951  -0.011558   0.007120  -0.002960  -0.007215
     4  C   -2.812618  -0.425732   0.008280   0.117157  -0.018294   0.063661
     5  C   -0.924810  -0.150987   0.117156   0.008280   0.063661  -0.018294
     6  C   -1.030860  -0.109827   0.007120  -0.011558  -0.007214  -0.002960
     7  C    9.665262   0.521103  -0.003692   0.206052  -0.007791   0.009558
     8  N    0.521103   7.531741  -0.005092  -0.096814   0.287617   0.000084
     9  O   -0.003692  -0.005092   8.529468   0.000051   0.000030  -0.001821
    10  O    0.206052  -0.096814   0.000051   8.529467  -0.001821   0.000030
    11  H   -0.007791   0.287617   0.000030  -0.001821   0.367475   0.000000
    12  H    0.009558   0.000084  -0.001821   0.000030   0.000000   0.367475
    13  C    0.217730   0.053121  -0.003015  -0.002191   0.034148   0.000518
    14  C    0.038807   0.119892  -0.000175   0.000394   0.029860  -0.000001
    15  C   -0.042978   0.013598  -0.012025   0.000222   0.001424   0.000000
    16  H    0.000047   0.000012   0.000009   0.000000   0.000000   0.000000
    17  C    0.056174   0.114411  -0.097830   0.001242  -0.000249   0.000713
    18  H   -0.000035   0.000018   0.000286   0.000000   0.000000   0.000000
    19  C   -0.589439  -0.242717  -0.201686   0.000075  -0.040706   0.002247
    20  H    0.001314   0.002297  -0.005205   0.000012   0.000004  -0.000004
    21  C   -0.479573  -0.118630   0.143014   0.020410  -0.086859  -0.002106
    22  C    0.065001  -0.028553  -0.000572  -0.000337   0.008417  -0.000002
    23  H   -0.000049  -0.000053   0.000000   0.000000   0.000000   0.000000
    24  S   -0.064884  -0.010906   0.000063   0.000128  -0.007904   0.000001
    25  N    0.049568   0.030070   0.000584  -0.006507   0.032978  -0.000003
    26  C    0.042990   0.012642  -0.002191  -0.003015   0.000518   0.034148
    27  C    0.005147  -0.003866   0.000394  -0.000175  -0.000001   0.029860
    28  C   -0.067448   0.002363   0.000222  -0.012025   0.000000   0.001424
    29  H   -0.000284  -0.000001   0.000000   0.000009   0.000000   0.000000
    30  C    0.094448   0.022964   0.001242  -0.097831   0.000713  -0.000249
    31  H   -0.000114   0.000007   0.000000   0.000286   0.000000   0.000000
    32  C   -0.454124   0.085276   0.000074  -0.201686   0.002247  -0.040706
    33  H    0.043545   0.002819   0.000012  -0.005205  -0.000004   0.000004
    34  C   -0.172488  -0.097937   0.020410   0.143014  -0.002106  -0.086859
    35  C    0.037277   0.000210  -0.000337  -0.000572  -0.000002   0.008417
    36  H   -0.000018   0.000000   0.000000   0.000000   0.000000   0.000000
    37  S   -0.011310  -0.000012   0.000128   0.000063   0.000001  -0.007904
    38  N    0.003288  -0.001162  -0.006507   0.000584  -0.000003   0.032978
             13         14         15         16         17         18
     1  N    0.012642  -0.003866   0.002363  -0.000001   0.022964   0.000007
     2  C    0.042991   0.005148  -0.067449  -0.000284   0.094450  -0.000114
     3  C   -0.148805  -0.124228   0.018607   0.000008  -0.054547   0.000095
     4  C    0.013972   0.224799  -0.066494  -0.000069   0.059456  -0.000174
     5  C    0.642271   0.268532   0.112830   0.001317   0.282122  -0.001283
     6  C   -1.333928   0.125582  -0.022851   0.000908  -1.078893  -0.006898
     7  C    0.217730   0.038807  -0.042978   0.000047   0.056174  -0.000035
     8  N    0.053121   0.119892   0.013598   0.000012   0.114411   0.000018
     9  O   -0.003015  -0.000175  -0.012025   0.000009  -0.097830   0.000286
    10  O   -0.002191   0.000394   0.000222   0.000000   0.001242   0.000000
    11  H    0.034148   0.029860   0.001424   0.000000  -0.000249   0.000000
    12  H    0.000518  -0.000001   0.000000   0.000000   0.000713   0.000000
    13  C    9.471713  -2.156461   0.022372   0.036304  -1.101035   0.009396
    14  C   -2.156461  15.355855  -3.026486   0.021515   1.469333   0.020329
    15  C    0.022372  -3.026486  10.300825   0.285030   0.378757  -0.000038
    16  H    0.036304   0.021515   0.285030   0.604325  -0.057214  -0.004614
    17  C   -1.101035   1.469333   0.378757  -0.057214  11.480325   0.391712
    18  H    0.009396   0.020329  -0.000038  -0.004614   0.391712   0.587749
    19  C    1.435493  -2.852629  -1.579004   0.071590  -5.828266  -0.106934
    20  H    0.046715   0.010767   0.001995  -0.000167   0.115432  -0.005130
    21  C   -0.513553  -2.184938   0.988762   0.024566  -0.006798   0.009916
    22  C   -0.148683  -2.727428  -0.591388  -0.084654   0.172482  -0.007441
    23  H    0.052883   0.084230  -0.027717   0.001603  -0.004249  -0.000004
    24  S   -0.042779   0.132679  -0.005597  -0.002266  -0.043859   0.000600
    25  N    0.138728   0.415103  -0.061824  -0.001547  -0.022236   0.000379
    26  C    0.041830   0.006936  -0.000583   0.000000   0.015118   0.000000
    27  C    0.006936   0.000993  -0.000125   0.000000   0.002170   0.000000
    28  C   -0.000583  -0.000125  -0.000011   0.000000  -0.000058   0.000000
    29  H    0.000000   0.000000   0.000000   0.000000   0.000000   0.000000
    30  C    0.015118   0.002170  -0.000058   0.000000   0.001314   0.000000
    31  H    0.000000   0.000000   0.000000   0.000000   0.000000   0.000000
    32  C   -0.068255  -0.005747   0.000431   0.000000  -0.011131   0.000002
    33  H    0.000566   0.000038   0.000003   0.000000  -0.000017   0.000000
    34  C   -0.048675  -0.003339   0.001376   0.000000  -0.027988   0.000000
    35  C   -0.000609  -0.000041   0.000010   0.000000  -0.000054   0.000000
    36  H    0.000000   0.000000   0.000000   0.000000   0.000000   0.000000
    37  S    0.000210   0.000020   0.000000   0.000000   0.000137   0.000000
    38  N   -0.001080  -0.000222   0.000042   0.000000   0.000363   0.000000
             19         20         21         22         23         24
     1  N    0.085276   0.002819  -0.097937   0.000210   0.000000  -0.000012
     2  C   -0.454126   0.043545  -0.172487   0.037277  -0.000018  -0.011310
     3  C    0.358355   0.005293   0.039280   0.005101   0.000002  -0.000264
     4  C    0.145606  -0.003505   0.406600  -0.012924   0.000000   0.016225
     5  C   -2.199435   0.017098  -0.012977  -0.112930  -0.000086   0.000584
     6  C    0.203011  -0.058165   0.524154  -0.020063  -0.001456   0.053758
     7  C   -0.589439   0.001314  -0.479573   0.065001  -0.000049  -0.064884
     8  N   -0.242717   0.002297  -0.118630  -0.028553  -0.000053  -0.010906
     9  O   -0.201686  -0.005205   0.143014  -0.000572   0.000000   0.000063
    10  O    0.000075   0.000012   0.020410  -0.000337   0.000000   0.000128
    11  H   -0.040706   0.000004  -0.086859   0.008417   0.000000  -0.007904
    12  H    0.002247  -0.000004  -0.002106  -0.000002   0.000000   0.000001
    13  C    1.435493   0.046715  -0.513553  -0.148683   0.052883  -0.042779
    14  C   -2.852629   0.010767  -2.184938  -2.727428   0.084230   0.132679
    15  C   -1.579004   0.001995   0.988762  -0.591388  -0.027717  -0.005597
    16  H    0.071590  -0.000167   0.024566  -0.084654   0.001603  -0.002266
    17  C   -5.828266   0.115432  -0.006798   0.172482  -0.004249  -0.043859
    18  H   -0.106934  -0.005130   0.009916  -0.007441  -0.000004   0.000600
    19  C   20.860058   0.184163  -3.429029   0.793291  -0.000796  -0.005188
    20  H    0.184163   0.523968  -0.055185   0.001709   0.000000   0.000283
    21  C   -3.429029  -0.055185  11.404590  -0.599899  -0.000032   0.072485
    22  C    0.793291   0.001709  -0.599899  10.578470   0.165973  -0.854101
    23  H   -0.000796   0.000000  -0.000032   0.165973   0.541993   0.026674
    24  S   -0.005188   0.000283   0.072485  -0.854101   0.026674  16.205472
    25  N   -0.036542  -0.002223  -0.247027  -0.535130   0.012625  -0.030361
    26  C   -0.068256   0.000566  -0.048675  -0.000609   0.000000   0.000210
    27  C   -0.005747   0.000038  -0.003339  -0.000041   0.000000   0.000020
    28  C    0.000431   0.000003   0.001376   0.000010   0.000000   0.000000
    29  H    0.000000   0.000000   0.000000   0.000000   0.000000   0.000000
    30  C   -0.011131  -0.000017  -0.027988  -0.000054   0.000000   0.000137
    31  H    0.000002   0.000000   0.000000   0.000000   0.000000   0.000000
    32  C    0.069615  -0.001028   0.185173   0.001136   0.000000   0.000197
    33  H   -0.001028   0.000000  -0.003583  -0.000006   0.000000   0.000007
    34  C    0.185173  -0.003583   0.039236   0.000950   0.000000  -0.000070
    35  C    0.001136  -0.000006   0.000950   0.000001   0.000000   0.000000
    36  H    0.000000   0.000000   0.000000   0.000000   0.000000   0.000000
    37  S    0.000197   0.000007  -0.000070   0.000000   0.000000   0.000000
    38  N    0.007048   0.000022  -0.004765   0.000011   0.000000  -0.000004
             25         26         27         28         29         30
     1  N   -0.001162   0.053121   0.119893   0.013598   0.000012   0.114411
     2  C    0.003288   0.217730   0.038807  -0.042978   0.000047   0.056175
     3  C    0.022590  -1.333928   0.125574  -0.022849   0.000908  -1.078894
     4  C   -0.104684   0.642272   0.268530   0.112831   0.001317   0.282122
     5  C    0.002380   0.013975   0.224800  -0.066494  -0.000069   0.059456
     6  C    0.075212  -0.148806  -0.124228   0.018607   0.000008  -0.054547
     7  C    0.049568   0.042990   0.005147  -0.067448  -0.000284   0.094448
     8  N    0.030070   0.012642  -0.003866   0.002363  -0.000001   0.022964
     9  O    0.000584  -0.002191   0.000394   0.000222   0.000000   0.001242
    10  O   -0.006507  -0.003015  -0.000175  -0.012025   0.000009  -0.097831
    11  H    0.032978   0.000518  -0.000001   0.000000   0.000000   0.000713
    12  H   -0.000003   0.034148   0.029860   0.001424   0.000000  -0.000249
    13  C    0.138728   0.041830   0.006936  -0.000583   0.000000   0.015118
    14  C    0.415103   0.006936   0.000993  -0.000125   0.000000   0.002170
    15  C   -0.061824  -0.000583  -0.000125  -0.000011   0.000000  -0.000058
    16  H   -0.001547   0.000000   0.000000   0.000000   0.000000   0.000000
    17  C   -0.022236   0.015118   0.002170  -0.000058   0.000000   0.001314
    18  H    0.000379   0.000000   0.000000   0.000000   0.000000   0.000000
    19  C   -0.036542  -0.068256  -0.005747   0.000431   0.000000  -0.011131
    20  H   -0.002223   0.000566   0.000038   0.000003   0.000000  -0.000017
    21  C   -0.247027  -0.048675  -0.003339   0.001376   0.000000  -0.027988
    22  C   -0.535130  -0.000609  -0.000041   0.000010   0.000000  -0.000054
    23  H    0.012625   0.000000   0.000000   0.000000   0.000000   0.000000
    24  S   -0.030361   0.000210   0.000020   0.000000   0.000000   0.000137
    25  N    7.641592  -0.001080  -0.000222   0.000042   0.000000   0.000363
    26  C   -0.001080   9.471720  -2.156470   0.022369   0.036304  -1.101035
    27  C   -0.000222  -2.156470  15.355876  -3.026493   0.021515   1.469329
    28  C    0.000042   0.022369  -3.026493  10.300832   0.285029   0.378764
    29  H    0.000000   0.036304   0.021515   0.285029   0.604325  -0.057213
    30  C    0.000363  -1.101035   1.469329   0.378764  -0.057213  11.480307
    31  H    0.000000   0.009396   0.020329  -0.000038  -0.004614   0.391711
    32  C    0.007048   1.435492  -2.852613  -1.579018   0.071590  -5.828230
    33  H    0.000022   0.046715   0.010767   0.001995  -0.000167   0.115432
    34  C   -0.004765  -0.513552  -2.184949   0.988769   0.024566  -0.006812
    35  C    0.000011  -0.148672  -2.727427  -0.591390  -0.084653   0.172479
    36  H    0.000000   0.052883   0.084229  -0.027717   0.001603  -0.004249
    37  S   -0.000004  -0.042782   0.132681  -0.005597  -0.002266  -0.043859
    38  N    0.000013   0.138726   0.415103  -0.061823  -0.001547  -0.022237
             31         32         33         34         35         36
     1  N    0.000018  -0.242716   0.002297  -0.118630  -0.028553  -0.000053
     2  C   -0.000035  -0.589439   0.001314  -0.479574   0.065001  -0.000049
     3  C   -0.006898   0.203008  -0.058165   0.524163  -0.020063  -0.001456
     4  C   -0.001283  -2.199428   0.017098  -0.012975  -0.112930  -0.000086
     5  C   -0.000174   0.145606  -0.003505   0.406598  -0.012924   0.000000
     6  C    0.000095   0.358353   0.005293   0.039281   0.005101   0.000002
     7  C   -0.000114  -0.454124   0.043545  -0.172488   0.037277  -0.000018
     8  N    0.000007   0.085276   0.002819  -0.097937   0.000210   0.000000
     9  O    0.000000   0.000074   0.000012   0.020410  -0.000337   0.000000
    10  O    0.000286  -0.201686  -0.005205   0.143014  -0.000572   0.000000
    11  H    0.000000   0.002247  -0.000004  -0.002106  -0.000002   0.000000
    12  H    0.000000  -0.040706   0.000004  -0.086859   0.008417   0.000000
    13  C    0.000000  -0.068255   0.000566  -0.048675  -0.000609   0.000000
    14  C    0.000000  -0.005747   0.000038  -0.003339  -0.000041   0.000000
    15  C    0.000000   0.000431   0.000003   0.001376   0.000010   0.000000
    16  H    0.000000   0.000000   0.000000   0.000000   0.000000   0.000000
    17  C    0.000000  -0.011131  -0.000017  -0.027988  -0.000054   0.000000
    18  H    0.000000   0.000002   0.000000   0.000000   0.000000   0.000000
    19  C    0.000002   0.069615  -0.001028   0.185173   0.001136   0.000000
    20  H    0.000000  -0.001028   0.000000  -0.003583  -0.000006   0.000000
    21  C    0.000000   0.185173  -0.003583   0.039236   0.000950   0.000000
    22  C    0.000000   0.001136  -0.000006   0.000950   0.000001   0.000000
    23  H    0.000000   0.000000   0.000000   0.000000   0.000000   0.000000
    24  S    0.000000   0.000197   0.000007  -0.000070   0.000000   0.000000
    25  N    0.000000   0.007048   0.000022  -0.004765   0.000011   0.000000
    26  C    0.009396   1.435492   0.046715  -0.513552  -0.148672   0.052883
    27  C    0.020329  -2.852613   0.010767  -2.184949  -2.727427   0.084229
    28  C   -0.000038  -1.579018   0.001995   0.988769  -0.591390  -0.027717
    29  H   -0.004614   0.071590  -0.000167   0.024566  -0.084653   0.001603
    30  C    0.391711  -5.828230   0.115432  -0.006812   0.172479  -0.004249
    31  H    0.587750  -0.106934  -0.005130   0.009916  -0.007441  -0.000004
    32  C   -0.106934  20.859994   0.184163  -3.429014   0.793293  -0.000796
    33  H   -0.005130   0.184163   0.523968  -0.055186   0.001709   0.000000
    34  C    0.009916  -3.429014  -0.055186  11.404581  -0.599894  -0.000032
    35  C   -0.007441   0.793293   0.001709  -0.599894  10.578456   0.165974
    36  H   -0.000004  -0.000796   0.000000  -0.000032   0.165974   0.541993
    37  S    0.000600  -0.005189   0.000283   0.072484  -0.854100   0.026674
    38  N    0.000379  -0.036541  -0.002223  -0.247026  -0.535130   0.012625
             37         38
     1  N   -0.010906   0.030070
     2  C   -0.064885   0.049568
     3  C    0.053758   0.075212
     4  C    0.000584   0.002379
     5  C    0.016225  -0.104685
     6  C   -0.000264   0.022590
     7  C   -0.011310   0.003288
     8  N   -0.000012  -0.001162
     9  O    0.000128  -0.006507
    10  O    0.000063   0.000584
    11  H    0.000001  -0.000003
    12  H   -0.007904   0.032978
    13  C    0.000210  -0.001080
    14  C    0.000020  -0.000222
    15  C    0.000000   0.000042
    16  H    0.000000   0.000000
    17  C    0.000137   0.000363
    18  H    0.000000   0.000000
    19  C    0.000197   0.007048
    20  H    0.000007   0.000022
    21  C   -0.000070  -0.004765
    22  C    0.000000   0.000011
    23  H    0.000000   0.000000
    24  S    0.000000  -0.000004
    25  N   -0.000004   0.000013
    26  C   -0.042782   0.138726
    27  C    0.132681   0.415103
    28  C   -0.005597  -0.061823
    29  H   -0.002266  -0.001547
    30  C   -0.043859  -0.022237
    31  H    0.000600   0.000379
    32  C   -0.005189  -0.036541
    33  H    0.000283  -0.002223
    34  C    0.072484  -0.247026
    35  C   -0.854100  -0.535130
    36  H    0.026674   0.012625
    37  S   16.205473  -0.030361
    38  N   -0.030361   7.641591
 Mulliken atomic charges:
              1
     1  N   -0.504874
     2  C    0.711661
     3  C    0.581216
     4  C   -0.230238
     5  C   -0.230236
     6  C    0.581216
     7  C    0.711661
     8  N   -0.504874
     9  O   -0.586077
    10  O   -0.586077
    11  H    0.337180
    12  H    0.337180
    13  C   -0.726009
    14  C    0.752704
    15  C   -0.624020
    16  H    0.103581
    17  C   -0.324251
    18  H    0.112175
    19  C   -0.750108
    20  H    0.176169
    21  C    0.234937
    22  C   -0.105225
[...]
 9,0.00192262,-0.00334812,0.00067040,-0.00086285,0.00085604,0.00000969,
 0.00001840,0.00003138,-0.00146305,-0.00088364,-0.00300959,0.00014454,0
 .00128815,0.00124631,-0.07890219,-0.01194545,-0.03018479,0.01025084,-0
 .00108501,0.01156104,-0.00715643,-0.01041153,-0.01363014,-0.00053889,-
 0.00027582,-0.00016528,-0.00340287,0.03611362,-0.00280438,0.00435537,0
 .00162196,-0.00156703,-0.11845888,0.02053242,-0.10030085,0.00002300,0.
 00296559,-0.00659332,0.27120108,0.01372195,-0.02148593,0.01686925,0.00
 458126,0.01346759,0.01217488,0.04587865,-0.24368446,0.02014625,0.00499
 256,-0.05283661,-0.00957621,-0.00927030,0.00850088,-0.01504187,-0.0017
 1896,-0.00372848,-0.00474946,0.00235678,0.00271041,0.00594758,0.002466
 02,-0.00269775,0.00327912,-0.00376520,0.00102857,-0.00663767,-0.001115
 49,-0.00000604,-0.00220456,-0.00003411,0.00114872,0.00032244,-0.000292
 03,-0.00024427,-0.00046750,0.00001095,-0.00237194,-0.00083421,-0.00054
 063,0.00051030,-0.00075876,0.00137893,0.00050035,0.00258803,-0.0000149
 2,0.00014457,0.00002543,-0.00051186,-0.00435629,-0.00231669,-0.0000439
 9,-0.00011193,-0.00011626,-0.00235630,0.00201500,-0.00364435,-0.000039
 18,0.00006389,-0.00002905,0.00193022,0.00199213,0.00450108,-0.00081971
 ,0.00163225,-0.00093824,-0.00001768,-0.00004802,-0.00004792,0.00213776
 ,0.00138590,0.00423092,-0.00018658,-0.00228259,-0.00097012,-0.00838700
 ,-0.18466497,-0.05419427,-0.00169952,-0.02299870,-0.01166557,-0.002172
 64,0.00986970,-0.00022575,0.00000931,0.00039688,0.00031487,0.02075924,
 -0.02592935,0.02688944,0.00186295,-0.00515891,-0.00017045,0.02796527,-
 0.11603382,0.03067831,-0.01063736,0.01274682,-0.01619245,-0.07945354,0
 .61971284,-0.00959392,0.03855633,-0.00295370,-0.00607284,-0.00897434,-
 0.01256743,-0.02351097,-0.01043318,-0.10133963,0.00931662,-0.00521126,
 0.01858389,0.00114372,0.00255306,0.00694247,0.00075547,-0.00919231,-0.
 00023961,0.00051867,-0.00467262,-0.00327127,-0.00157130,0.00179504,-0.
 00153298,0.00177778,0.00199479,0.00466361,0.00028017,0.00052213,0.0013
 1780,0.00006603,-0.00089286,-0.00019678,0.00058900,-0.00201495,-0.0000
 7084,-0.00067975,0.00101520,-0.00062778,0.00020444,-0.00065201,0.00003
 834,-0.00103212,-0.00159466,-0.00227655,0.00000524,-0.00015206,-0.0000
 5422,0.00017837,0.00547731,0.00207225,0.00006351,0.00007597,0.00014594
 ,0.00348215,-0.00364903,0.00533464,0.00002334,-0.00016691,-0.00007205,
 -0.00335417,0.00450370,-0.00577621,0.00087016,-0.00100090,0.00125870,0
 .00001864,0.00001798,0.00003667,-0.00202037,-0.00113614,-0.00389323,0.
 00076847,0.00164174,0.00157854,-0.02902411,-0.06064079,-0.13549448,0.0
 1136187,-0.01055260,0.02027204,-0.01097896,-0.01478576,-0.02565810,-0.
 00006687,-0.00019868,-0.00069041,-0.00776313,0.05417500,0.00863115,-0.
 00148355,-0.00059730,0.00269356,-0.09793579,0.01747884,-0.22634456,-0.
 01096016,0.00801337,-0.01267558,0.20161215,0.01471437,0.50595255,0.000
 14325,0.00018559,0.00015453,0.00054451,-0.00004057,0.00113478,0.000493
 94,0.00194713,0.00078624,-0.00051136,-0.00095835,-0.00086838,-0.000467
 34,-0.00085622,-0.00104368,-0.00015948,0.00145167,0.00011834,0.0000132
 8,0.00079617,0.00030062,0.00025669,-0.00041895,0.00031645,-0.00052902,
 0.00036665,-0.00091785,0.00001925,-0.00020169,-0.00006689,-0.00001604,
 0.00012607,0.00001707,-0.00004999,-0.00005639,0.00001607,0.00007973,-0
 .00020008,0.00010320,-0.00007036,0.00014259,-0.00005497,0.00019056,0.0
 0033457,0.00043248,-0.00000047,0.00003705,0.00001292,-0.00000766,-0.00
 103345,-0.00035126,-0.00002026,-0.00001149,-0.00003469,-0.00065921,0.0
 0070310,-0.00095014,-0.00000095,0.00000006,-0.00000164,0.00067413,-0.0
 0082213,0.00087364,-0.00016205,0.00020930,-0.00022789,-0.00000549,-0.0
 0000222,-0.00000729,0.00037579,0.00018517,0.00072908,-0.00008678,-0.00
 029934,-0.00027070,0.01365704,-0.01518822,0.01075133,-0.08609024,-0.03
 211185,-0.07036582,-0.00613968,-0.01255162,-0.02564644,-0.00096406,-0.
 00072393,0.00179739,0.00178812,0.00895081,0.00011280,0.00013173,-0.000
 32806,-0.00053749,0.00010150,-0.00426859,0.00036809,0.00006731,0.00004
 362,0.00009158,0.00030884,0.00013451,-0.00260077,0.17278005,0.00058406
 ,-0.00301497,0.00002119,-0.00115411,0.00206224,-0.00134353,-0.00039579
 ,0.00111376,-0.00047195,0.00023482,-0.00075996,0.00023278,0.00005371,0
 .00118331,0.00049309,0.00034675,-0.00241696,-0.00018866,0.00062432,-0.
 00130675,0.00068788,-0.00044548,0.00068768,-0.00056685,0.00095386,-0.0
 0088701,0.00138828,-0.00050630,0.00075968,-0.00065868,0.00003213,-0.00
 005810,0.00003913,-0.00044814,0.00153373,-0.00027661,-0.00013191,0.000
 12794,-0.00018966,0.00013467,-0.00028129,0.00015259,-0.00019874,-0.000
 62420,-0.00055753,-0.00000163,-0.00006853,-0.00002579,-0.00008545,0.00
 146506,0.00032474,0.00003943,0.00000053,0.00007066,0.00092755,-0.00109
 842,0.00128700,-0.00001022,0.00002221,-0.00001083,-0.00085652,0.001628
 76,-0.00099781,0.00020927,-0.00025775,0.00028645,0.00000587,-0.0000041
 6,0.00001026,-0.00047531,-0.00015826,-0.00089649,0.00011603,0.00031145
 ,0.00030363,0.00367725,-0.03680523,-0.00700941,-0.03691828,-0.18718763
 ,-0.10951428,-0.00827994,0.01349867,-0.01228112,-0.00033083,0.00053384
 ,0.00027402,0.00309243,0.01000299,0.00764923,0.00027985,0.00086249,0.0
 0065255,0.00249075,-0.00517090,0.00303967,0.00004864,-0.00015661,0.000
 02779,0.00172267,-0.00810190,-0.00015849,-0.04535014,0.70546741,0.0002
 8288,-0.00068424,0.00036947,0.00076805,0.00063412,0.00148018,0.0000213
 8,0.00368884,0.00165362,-0.00047803,-0.00188513,-0.00166446,-0.0007411
 8,-0.00111844,-0.00173199,-0.00024431,0.00177514,0.00018621,0.00024032
 ,0.00099739,0.00074772,0.00030739,-0.00052439,0.00037753,-0.00072538,0
 .00034366,-0.00112521,-0.00016314,-0.00012173,-0.00031012,-0.00001340,
 0.00020629,0.00004076,-0.00011143,0.00042235,-0.00013014,0.00012525,-0
 .00030981,0.00010444,-0.00006542,0.00016487,-0.00007405,0.00026309,0.0
 0038888,0.00060339,-0.00000044,0.00004409,0.00001423,-0.00004082,-0.00
 136579,-0.00051986,-0.00001822,-0.00001946,-0.00004138,-0.00087843,0.0
 0089587,-0.00126365,-0.00000452,0.00000802,-0.00000637,0.00086038,-0.0
 0094056,0.00125931,-0.00022463,0.00029166,-0.00030433,-0.00000443,-0.0
 0000478,-0.00001148,0.00051678,0.00028006,0.00100789,-0.00013564,-0.00
 043810,-0.00037195,0.01691192,-0.04055474,0.02167035,-0.07194072,-0.10
 098980,-0.21313862,-0.02424186,-0.01986277,-0.04356728,0.00192418,-0.0
 0042468,0.00118271,-0.00179008,0.01807128,0.00604650,-0.00034086,-0.00
 042500,-0.00036920,0.00256477,-0.00898632,0.00075471,0.00009401,0.0000
 1941,0.00019600,-0.00208439,-0.00298173,-0.00287863,0.15891430,0.12437
 415,0.39814887,-0.00016780,0.00021705,0.00015585,0.00002576,-0.0001372
 7,0.00005291,-0.00010085,-0.00002366,-0.00032832,0.00010372,0.00001192
 ,0.00001173,0.00007029,0.00001514,-0.00001402,-0.00004068,0.00000043,0
 .00003422,0.00001726,0.00002841,-0.00002139,0.00000276,0.00000188,0.00
 002662,-0.00003047,0.00002926,0.00000148,-0.00001033,-0.00001079,0.000
 01189,0.00000080,-0.00000078,-0.00000116,0.00028470,-0.00022341,-0.000
 14522,0.00001131,-0.00000391,-0.00000355,-0.00000354,0.00000488,-0.000
 00066,0.00000290,0.00000804,0.00001093,0.00000062,0.00000169,0.0000000
 2,0.,-0.00002346,-0.00000619,0.00000078,-0.00000025,-0.00000189,-0.000
 02097,0.00001451,-0.00001668,0.00000193,-0.00000435,-0.00000318,0.0000
 1005,-0.00001816,0.00001894,-0.00000560,0.00000567,-0.00000443,0.00000
 167,0.00000048,-0.00000135,0.00000897,0.00000340,0.00001623,-0.0000042
 4,-0.00000579,-0.00000307,0.00238057,-0.00048409,-0.00463812,0.0042132
 0,-0.01042001,0.00145102,-0.00200248,-0.00028781,0.00168818,0.00014135
 ,0.00032175,-0.00023280,-0.00033265,0.00016367,0.00022923,0.00017835,0
 .00003211,-0.00010605,-0.00020586,-0.00007117,0.00018291,0.00009206,0.
 00002839,-0.00006003,0.00041812,-0.00044241,0.00035052,-0.03118165,0.0
 3842695,-0.00848479,0.02720013,-0.00007986,-0.00016684,-0.00012637,-0.
 00000523,0.00015626,0.00005052,0.00000140,-0.00003545,-0.00003481,0.00
 003709,-0.00012878,-0.00000906,-0.00004913,-0.00010166,-0.00014578,-0.
 00001850,0.00008537,0.00001450,0.00000779,0.00006079,0.00002251,0.0000
 0232,-0.00005984,-0.00001170,-0.00002621,-0.00002475,-0.00004619,0.000
 00232,-0.00003630,-0.00000166,0.00000104,0.00000643,0.00000356,0.00000
 632,0.00026023,-0.00001012,0.00000709,0.00000157,0.00000957,0.00000118
 ,0.00000052,0.00000278,0.00000058,0.00000991,0.00000470,0.00000039,-0.
 00000051,0.00000015,0.00000072,-0.00002214,-0.00000538,0.00000016,0.00
 000016,-0.00000021,-0.00001900,0.00001926,-0.00002464,0.00000045,0.000
 00574,0.00000181,0.00001825,-0.00004790,0.00001728,-0.00000226,-0.0000
 0444,-0.00000449,0.00000052,-0.00000030,-0.00000003,0.00000483,0.00000
 302,0.00000969,-0.00000487,-0.00000402,-0.00000900,0.00060162,-0.00121
 041,-0.00091291,0.00311465,-0.00618242,0.00303207,0.00020017,0.0004230
 6,0.00146821,-0.00021789,0.00013616,-0.00044863,-0.00017383,-0.0005126
 9,-0.00033483,0.00001589,-0.00001806,-0.00005663,-0.00008646,0.0001785
 1,0.00000870,0.00000093,0.00003944,-0.00002822,0.00028971,-0.00049441,
 0.00030891,0.03679025,-0.34764560,-0.04134688,-0.03956231,0.36159830,0
 .00005858,0.00040393,0.00002068,0.00009711,-0.00018434,0.00008332,-0.0
 0032048,-0.00007905,-0.00051550,0.00001992,-0.00005331,0.00011686,-0.0
 0003492,-0.00003403,0.00000733,0.00002770,0.00005031,0.00000584,-0.000
 02914,0.00006076,0.00000307,0.00002700,-0.00001319,0.00003202,-0.00001
 756,0.00005330,-0.00003988,0.00001696,-0.00002568,0.00000254,-0.000000
 55,0.00000056,0.00000046,-0.00006983,-0.00041904,0.00006473,0.00000011
 ,-0.00001119,0.00000910,-0.00000321,0.00001001,-0.00000476,0.00000927,
 0.00001844,0.00002077,-0.00000047,0.00000257,0.00000112,0.00000215,-0.
 00005101,-0.00001376,-0.00000179,-0.00000102,-0.00000169,-0.00002876,0
 .00003614,-0.00004810,-0.00000153,-0.00000677,-0.00000215,0.00003121,-
 0.00004761,0.00003632,-0.00000700,0.00001082,-0.00001129,-0.00000134,-
 0.00000004,0.00000013,0.00001793,0.00000754,0.00003477,-0.00000285,-0.
 00001151,-0.00001246,-0.00428759,-0.00284464,-0.00365113,0.00584875,-0
 .02101580,0.00503020,0.00185507,0.00060112,0.00048112,-0.00040901,0.00
 050135,-0.00022034,0.00012035,0.00026076,-0.00013374,-0.00011105,-0.00
 002799,0.00003777,0.00017667,0.00003920,0.00000447,-0.00006897,0.00002
 087,0.00001527,0.00059051,-0.00099262,0.00086507,-0.00902104,-0.038462
 93,-0.04794263,0.00810741,0.04226527,0.04360296,0.00060505,0.00162418,
 0.00082495,-0.00104391,-0.00120154,-0.00243203,-0.00129359,-0.00301655
 ,-0.00186719,0.00057315,0.00254482,0.00215580,0.00121733,0.00228482,0.
 00293074,0.00051934,-0.00371365,-0.00023654,-0.00000589,-0.00190967,-0
 .00065248,-0.00058438,0.00125600,-0.00050969,0.00121147,-0.00051850,0.
 00204756,-0.00009276,0.00056522,-0.00004283,0.00004037,-0.00028881,-0.
 00003422,-0.00010991,-0.00300854,-0.00015891,-0.00024691,0.00042228,-0
 .00022421,0.00020202,-0.00036382,0.00018831,-0.00043728,-0.00084639,-0
 .00101953,-0.00000021,-0.00008853,-0.00003128,-0.00000330,0.00247502,0
 .00077730,0.00004908,0.00002286,0.00008793,0.00154629,-0.00172466,0.00
 225227,-0.00000258,-0.00005480,-0.00002012,-0.00146232,0.00213833,-0.0
 0202279,0.00037515,-0.00047509,0.00051649,0.00000918,0.00000513,0.0000
 1786,-0.00088881,-0.00041023,-0.00168951,0.00024635,0.00070957,0.00059
 205,-0.01197947,-0.00655515,-0.03491579,-0.01100358,-0.00908937,-0.034
 08580,0.00499996,-0.00124729,-0.00144506,-0.00043654,0.00013159,0.0001
 9139,0.00084196,0.00036945,-0.00059174,-0.00073792,-0.00021405,0.00031
 928,0.00125843,0.00062688,0.00077741,-0.00082041,-0.00018732,0.0003258
 3,0.00418544,0.00617330,-0.00362224,-0.06270796,0.03228871,-0.05422765
 ,-0.00267613,-0.00103562,0.00090822,0.11259285,0.00105122,-0.00079261,
 0.00146535,-0.00108913,0.00007108,-0.00194594,-0.00099117,-0.00143739,
 -0.00196908,0.00080643,0.00126310,0.00190467,0.00062533,0.00173408,0.0
 0168217,0.00012911,-0.00242578,-0.00055461,-0.00044168,-0.00099692,-0.
 00111503,-0.00024120,0.00046594,-0.00025496,0.00091627,-0.00040124,0.0
 0151010,0.00027336,-0.00008993,0.00044519,0.00001033,-0.00015306,-0.00
 003379,-0.00075719,-0.00234729,-0.00193367,-0.00017833,0.00015514,-0.0
 0025301,0.00002134,-0.00014367,-0.00001853,-0.00018845,-0.00041999,-0.
 00046556,-0.00000162,-0.00003285,-0.00001421,0.00000788,0.00123713,0.0
 0041350,0.00001804,0.00001122,0.00003426,0.00084552,-0.00088828,0.0012
 2367,0.00000169,-0.00001786,-0.00000223,-0.00088191,0.00138482,-0.0011
 3599,0.00018478,-0.00015871,0.00027813,0.00000351,0.00000316,0.0000073
 8,-0.00041056,-0.00021561,-0.00079575,0.00017133,0.00029767,0.00038751
 ,-0.01500578,-0.02824940,-0.03797843,0.01123206,-0.00005187,0.01783938
 ,-0.00073448,-0.00132910,-0.00355719,0.00019753,-0.00019581,0.00045422
 ,0.00146447,0.00024527,0.00227935,-0.00022164,-0.00000997,-0.00008692,
 0.00037459,-0.00276416,-0.00053865,-0.00026600,0.00032941,-0.00002836,
 0.00086453,0.00674871,0.00135325,0.05310710,-0.09061362,0.07360030,0.0
 0919137,-0.00551858,0.01564493,-0.02937296,0.25437019,0.00063510,0.002
 48772,0.00237999,-0.00238930,-0.00214594,-0.00485761,-0.00120251,-0.00
 556885,-0.00475557,0.00158683,0.00499358,0.00428197,0.00238134,0.00463
 039,0.00575123,0.00102110,-0.00738304,-0.00063165,-0.00017163,-0.00372
 393,-0.00151376,-0.00099931,0.00240741,-0.00105535,0.00251463,-0.00104
 146,0.00409905,-0.00013848,0.00096429,0.00010299,0.00006333,-0.0005652
 5,-0.00006503,0.00057557,-0.00592436,-0.00149059,-0.00041947,0.0008150
 8,-0.00052488,0.00031537,-0.00070293,0.00036037,-0.00080737,-0.0016360
 1,-0.00198347,-0.00000142,-0.00016828,-0.00006004,-0.00002710,0.004799
 50,0.00153036,0.00008705,0.00004314,0.00017099,0.00309282,-0.00334487,
 0.00436412,-0.00000204,-0.00010293,-0.00003767,-0.00300894,0.00423133,
 -0.00389801,0.00072908,-0.00089585,0.00100672,0.00001666,0.00001012,0.
 00003458,-0.00169026,-0.00079531,-0.00327641,0.00041724,0.00134499,0.0
 0122168,-0.03774237,-0.02302129,-0.06804268,-0.02751633,-0.01832653,-0
 .04834959,-0.00127504,-0.00446844,0.00185714,0.00020989,0.00033993,-0.
 00003198,-0.00023509,0.00032699,0.00093379,0.00031618,-0.00007280,-0.0
 0041804,0.00069235,-0.00008858,0.00213721,0.00029869,0.00011280,-0.000
 46903,-0.00535313,0.01078014,0.00135980,-0.04738901,0.03653550,-0.0987
 3961,0.00423471,-0.00254697,0.00332786,0.12042010,0.01774788,0.2592540
 8,0.00318863,-0.00113019,0.00105976,0.00071965,0.00043425,0.00027637,-
 0.00142727,0.00761357,0.00085275,-0.00039487,-0.00264106,-0.00144131,-
 0.00082737,-0.00015510,-0.00076685,0.00008950,0.00032779,-0.00027722,0
 .00047139,0.00066222,0.00089130,0.00019570,-0.00021780,0.00047971,-0.0
 0005930,0.00029138,-0.00031833,-0.00023838,0.00008778,-0.00040383,0.00
 003788,0.00013349,0.00001977,-0.00308424,-0.00000190,-0.00034149,0.000
 24050,-0.00017366,-0.00005437,-0.00009880,0.00002207,0.00007965,0.0001
 7777,0.00006875,0.00022106,-0.00000259,0.00000966,0.00000374,-0.000097
 81,-0.00049905,-0.00024364,-0.00000218,-0.00002348,0.00000224,-0.00020
 753,0.00028310,-0.00057846,-0.00002305,-0.00004604,-0.00003245,0.00014
 484,-0.00018667,0.00076846,-0.00008546,0.00011726,-0.00013582,-0.00000
 424,-0.00000493,-0.00000291,0.00024656,0.00017175,0.00041768,-0.000171
 07,-0.00021970,-0.00012601,-0.13554939,0.04385265,-0.11799930,-0.00040
 104,0.03473123,-0.01811113,0.00118277,0.00229701,-0.00132909,-0.000042
 27,0.00019513,-0.00104465,-0.00192403,0.00393193,0.00045866,-0.0000063
 0,0.00007372,-0.00001210,0.00520617,-0.00499118,0.00253779,0.00028928,
 0.00022021,-0.00035841,-0.00940422,-0.01284023,-0.02111523,-0.00179566
 ,0.00929908,-0.01683492,0.00161593,0.00017548,-0.00349785,-0.03393958,
 -0.03071567,-0.00923926,0.17598008,0.00032804,-0.01156704,-0.00399115,
 0.00007083,0.00124485,0.00032478,0.00230154,0.00061722,0.00447723,-0.0
 0097811,-0.00231500,-0.00246911,-0.00123434,-0.00298941,-0.00303503,-0
 .00064530,0.00402826,0.00007153,0.00009381,0.00211579,0.00082812,0.000
 49222,-0.00175028,0.00033975,-0.00108801,0.00037683,-0.00186794,0.0001
 2268,-0.00075107,-0.00002936,-0.00002407,0.00025036,0.00002226,-0.0008
 3608,-0.00081655,-0.00056446,0.00024336,-0.00024079,0.00027787,-0.0001
 5421,0.00030510,-0.00012981,0.00031937,0.00081813,0.00081077,0.0000026
 1,0.00006987,0.00002967,0.00004793,-0.00214615,-0.00059701,-0.00004408
 ,-0.00000918,-0.00007816,-0.00136781,0.00159568,-0.00196333,0.00000601
 ,0.00009595,0.00004651,0.00128584,-0.00228154,0.00164311,-0.00030004,0
 .00031030,-0.00043667,-0.00000598,-0.00000418,-0.00001135,0.00070988,0
 .00029718,0.00134466,-0.00021953,-0.00054223,-0.00052090,0.02675564,-0
 .11189701,0.03103538,0.01316528,-0.01039494,0.01479651,0.00226628,-0.0
 0630984,0.00120888,0.00103360,-0.00009023,0.00161989,-0.00101486,-0.00
 406537,-0.00265068,0.00003723,0.00005944,0.00008176,-0.00232553,-0.001
 44207,-0.00553734,-0.00055241,0.00079580,-0.00089105,-0.01214776,0.012
 66084,-0.01752016,0.00991188,-0.05464396,-0.00322202,0.00321263,-0.000
 76964,0.00429390,0.01168435,-0.12906324,-0.01004728,-0.05115286,0.3184
 4812,0.00154379,-0.00655530,0.00296844,0.00015531,0.00096974,0.0012353
 8,-0.00088813,0.01387261,0.00245914,-0.00089543,-0.00542556,-0.0034363
 8,-0.00111558,-0.00111059,-0.00277534,-0.00059424,0.00179607,-0.000163
 52,0.00070393,0.00183697,0.00194624,0.00071079,-0.00092075,0.00084832,
 -0.00076675,0.00058466,-0.00099982,-0.00039249,-0.00009096,-0.00072235
 ,-0.00003186,0.00030133,0.00009312,-0.00053361,0.00076520,-0.00376687,
 0.00008207,-0.00046407,0.00023388,0.00002235,0.00018363,-0.00003938,0.
 00030167,0.00036714,0.00072199,0.00000145,0.00004086,0.00001336,-0.000
 06539,-0.00156648,-0.00067988,-0.00000448,-0.00004211,-0.00002916,-0.0
 0111507,0.00096829,-0.00149605,-0.00001496,-0.00004619,-0.00005564,0.0
 0124717,-0.00097040,0.00157923,-0.00027019,0.00030344,-0.00037132,-0.0
 0000308,-0.00000925,-0.00001248,0.00059166,0.00038733,0.00122039,-0.00
 012598,-0.00052066,-0.00053327,-0.12357256,0.06166160,-0.26095440,-0.0
 2508007,0.05314152,-0.01121198,-0.00133244,0.00127040,0.00039902,-0.00
 077399,0.00012745,-0.00074731,-0.00115133,0.00613320,-0.00151113,-0.00
 002441,0.00014519,0.00001975,0.00340140,-0.01027197,0.00557012,-0.0006
 1098,0.00047882,-0.00039504,-0.02090354,-0.01870637,-0.04313291,-0.016
 67493,-0.00423997,-0.02165293,-0.00251190,-0.00111570,-0.00120634,0.00
 449609,-0.08558935,-0.05397306,0.18619567,-0.00768976,0.39055819||0.00
 000280,0.00000109,-0.00000340,0.00000773,0.00000102,-0.00000182,0.0000
 0116,0.00000204,0.00000046,-0.00000098,-0.00000283,0.00000100,0.000000
 24,0.00000270,-0.00000057,-0.00000138,-0.00000208,-0.00000034,-0.00000
 495,-0.00000051,0.00000026,-0.00000356,-0.00000122,0.00000383,0.000005
 94,0.00000283,-0.00000478,-0.00000684,-0.00000300,0.00000529,-0.000005
 72,-0.00000072,0.00000371,0.00000558,0.00000069,-0.00000363,-0.0000017
 0,-0.00000124,-0.00000002,-0.00000063,-0.00000110,0.00000182,0.0000029
 9,0.00000112,-0.00000065,0.00000489,0.00000097,0.00000018,0.00000559,0
 .00000104,-0.00000163,0.00000821,0.00000167,-0.00000329,0.00000374,0.0
 0000160,-0.00000182,0.00000592,0.00000147,-0.00000262,0.00000126,-0.00
 000059,0.00000157,-0.00000233,-0.00000087,0.00000298,-0.00000245,-0.00
 000138,0.00000341,-0.00000545,-0.00000204,0.00000813,-0.00000485,-0.00
 000139,0.00000389,0.00000167,0.00000124,0.00000004,0.00000067,0.000001
 11,-0.00000185,-0.00000299,-0.00000113,0.00000065,-0.00000489,-0.00000
 097,-0.00000018,-0.00000558,-0.00000103,0.00000162,-0.00000821,-0.0000
 0167,0.00000329,-0.00000371,-0.00000160,0.00000182,-0.00000592,-0.0000
 0146,0.00000262,-0.00000135,0.00000058,-0.00000154,0.00000229,0.000000
 86,-0.00000296,0.00000244,0.00000137,-0.00000341,0.00000549,0.00000205
 ,-0.00000815,0.00000488,0.00000140,-0.00000391|||@


 I LOVE THOSE WHO LONG FOR THE IMPOSSIBLE.

                                 -- GOETHE
 Job cpu time:  0 days  9 hours 25 minutes 39.0 seconds.
 File lengths (MBytes):  RWF=   2481 Int=      0 D2E=      0 Chk=     30 Scr=      1
 Normal termination of Gaussian 09 at Thu Sep 28 21:35:08 2023.
