 Entering Gaussian System, Link 0=g09
 Initial command:
 /apps/software//g09/l1.exe /scratch/nathalia.rosa/82230.cluster.abaxnet/Gau-9290.inp -scrdir=/scratch/nathalia.rosa/82230.cluster.abaxnet/
 Entering Link 1 = /apps/software//g09/l1.exe PID=      9291.
  
 Copyright (c) 1988,1990,1992,1993,1995,1998,2003,2009, Gaussian, Inc.
                  All Rights Reserved.
  
 This is part of the Gaussian(R) 09 program.  It is based on
 the Gaussian(R) 03 system (copyright 2003, Gaussian, Inc.),
 the Gaussian(R) 98 system (copyright 1998, Gaussian, Inc.),
 the Gaussian(R) 94 system (copyright 1995, Gaussian, Inc.),
 the Gaussian 92(TM) system (copyright 1992, Gaussian, Inc.),
 the Gaussian 90(TM) system (copyright 1990, Gaussian, Inc.),
 the Gaussian 88(TM) system (copyright 1988, Gaussian, Inc.),
 the Gaussian 86(TM) system (copyright 1986, Carnegie Mellon
 University), and the Gaussian 82(TM) system (copyright 1983,
 Carnegie Mellon University). Gaussian is a federally registered
 trademark of Gaussian, Inc.
  
 This software contains proprietary and confidential information,
 including trade secrets, belonging to Gaussian, Inc.
  
 This software is provided under written license and may be
 used, copied, transmitted, or stored only in accord with that
 written license.
  
 The following legend is applicable only to US Government
 contracts under FAR:
  
                    RESTRICTED RIGHTS LEGEND
  
 Use, reproduction and disclosure by the US Government is
 subject to restrictions as set forth in subparagraphs (a)
 and (c) of the Commercial Computer Software - Restricted
 Rights clause in FAR 52.227-19.
  
 Gaussian, Inc.
 340 Quinnipiac St., Bldg. 40, Wallingford CT 06492
  
  
 ---------------------------------------------------------------
 Warning -- This program may not be used in any manner that
 competes with the business of Gaussian, Inc. or will provide
 assistance to any competitor of Gaussian, Inc.  The licensee
 of this program is prohibited from giving any competitor of
 Gaussian, Inc. access to this program.  By using this program,
 the user acknowledges that Gaussian, Inc. is engaged in the
 business of creating and licensing software in the field of
 computational chemistry and represents and warrants to the
 licensee that it is not a competitor of Gaussian, Inc. and that
 it will not use this program in any manner prohibited above.
 ---------------------------------------------------------------
  

 Cite this work as:
 Gaussian 09, Revision A.02,
 M. J. Frisch, G. W. Trucks, H. B. Schlegel, G. E. Scuseria, 
 M. A. Robb, J. R. Cheeseman, G. Scalmani, V. Barone, B. Mennucci, 
 G. A. Petersson, H. Nakatsuji, M. Caricato, X. Li, H. P. Hratchian, 
 A. F. Izmaylov, J. Bloino, G. Zheng, J. L. Sonnenberg, M. Hada, 
 M. Ehara, K. Toyota, R. Fukuda, J. Hasegawa, M. Ishida, T. Nakajima, 
 Y. Honda, O. Kitao, H. Nakai, T. Vreven, J. A. Montgomery, Jr., 
 J. E. Peralta, F. Ogliaro, M. Bearpark, J. J. Heyd, E. Brothers, 
 K. N. Kudin, V. N. Staroverov, R. Kobayashi, J. Normand, 
 K. Raghavachari, A. Rendell, J. C. Burant, S. S. Iyengar, J. Tomasi, 
 M. Cossi, N. Rega, J. M. Millam, M. Klene, J. E. Knox, J. B. Cross, 
 V. Bakken, C. Adamo, J. Jaramillo, R. Gomperts, R. E. Stratmann, 
 O. Yazyev, A. J. Austin, R. Cammi, C. Pomelli, J. W. Ochterski, 
 R. L. Martin, K. Morokuma, V. G. Zakrzewski, G. A. Voth, 
 P. Salvador, J. J. Dannenberg, S. Dapprich, A. D. Daniels, 
 O. Farkas, J. B. Foresman, J. V. Ortiz, J. Cioslowski, 
 and D. J. Fox, Gaussian, Inc., Wallingford CT, 2009.
 
 ******************************************
 Gaussian 09:  EM64L-G09RevA.02 11-Jun-2009
                30-Aug-2023 
 ******************************************
 %chk=/home/nathalia.rosa/DPP-SUB/DPP-SUB-5a/DPP-SUB-5a-TD-DFT.chk
 ---------------------------------------------------------
 # td=(nstates=10) cam-b3lyp/6-31+g(d,p) geom=connectivity
 ---------------------------------------------------------
 1/38=1,57=2/1;
 2/12=2,17=6,18=5,40=1/2;
 3/5=1,6=6,7=111,11=2,16=1,25=1,30=1,74=-40/1,2,8,3;
 4//1;
 5/5=2,38=5/2;
 8/6=1,10=2,108=10/1;
 9/41=10,42=1/14;
 6/7=2,8=2,9=2,10=2/1;
 99/5=1,9=1/99;
 -------
 Energy:
 -------
 Symbolic Z-matrix:
 Charge =  0 Multiplicity = 1
 N                     1.61724   1.37642   0.00001 
 C                     0.26682   1.79452   0.00001 
 C                     1.75734  -0.00219   0.00001 
 C                     0.47056  -0.53663   0.00003 
 C                    -0.47057   0.53664   0.00003 
 C                    -1.75734   0.00219   0.00001 
 C                    -0.26682  -1.79452   0. 
 N                    -1.61724  -1.37642  -0.00001 
 O                    -0.08774   2.97318   0.00001 
 O                     0.08774  -2.97317   0. 
 H                    -2.41037  -2.00978   0. 
 H                     2.41037   2.00979   0.00001 
 C                    -4.29727  -0.07466  0. 
 C                    -5.55684   0.64507  -0.00001 
 C                    -5.57408   2.07059  -0.00001 
 H                    -6.51932   2.60434  -0.00001 
 C                    -4.3745    2.74037  0. 
 H                    -4.35883   3.82571  0. 
 C                    -3.13198   2.04866   0. 
 H                    -2.2121    2.62847   0.00001 
 C                    -3.05029   0.66042   0. 
 C                    -6.61325  -0.25864  -0.00001 
 H                    -7.67492  -0.04937  -0.00002 
 S                    -5.99683  -1.84597  -0.00001 
 N                    -4.39309  -1.41056  0. 
 C                     4.29727   0.07466  0. 
 C                     5.55684  -0.64507  -0.00001 
 C                     5.57408  -2.0706   -0.00001 
 H                     6.51931  -2.60434  -0.00001 
 C                     4.37449  -2.74038   0. 
 H                     4.35882  -3.82571   0. 
 C                     3.13197  -2.04866   0.00001 
 H                     2.2121   -2.62846   0.00002 
 C                     3.05029  -0.66042   0.00001 
 C                     6.61325   0.25863  -0.00001 
 H                     7.67492   0.04936  -0.00002 
 S                     5.99683   1.84597  -0.00001 
 N                     4.3931    1.41056  0. 
 
                          Input orientation:                          
 ---------------------------------------------------------------------
 Center     Atomic      Atomic             Coordinates (Angstroms)
 Number     Number       Type             X           Y           Z
 ---------------------------------------------------------------------
      1          7           0        1.617241    1.376424    0.000010
      2          6           0        0.266822    1.794523    0.000009
      3          6           0        1.757338   -0.002189    0.000014
      4          6           0        0.470564   -0.536632    0.000028
      5          6           0       -0.470565    0.536637    0.000028
      6          6           0       -1.757338    0.002194    0.000008
      7          6           0       -0.266823   -1.794518    0.000001
      8          7           0       -1.617241   -1.376420   -0.000007
      9          8           0       -0.087738    2.973176    0.000007
     10          8           0        0.087737   -2.973171    0.000000
     11          1           0       -2.410373   -2.009781    0.000003
     12          1           0        2.410370    2.009788    0.000009
     13          6           0       -4.297267   -0.074664   -0.000002
     14          6           0       -5.556836    0.645065   -0.000008
     15          6           0       -5.574084    2.070593   -0.000007
     16          1           0       -6.519319    2.604337   -0.000010
     17          6           0       -4.374499    2.740374   -0.000002
     18          1           0       -4.358826    3.825707   -0.000002
     19          6           0       -3.131977    2.048662    0.000003
     20          1           0       -2.212103    2.628468    0.000008
     21          6           0       -3.050289    0.660419    0.000003
     22          6           0       -6.613246   -0.258637   -0.000012
     23          1           0       -7.674917   -0.049367   -0.000021
     24         16           0       -5.996827   -1.845974   -0.000007
     25          7           0       -4.393093   -1.410557   -0.000001
     26          6           0        4.297268    0.074664   -0.000002
     27          6           0        5.556835   -0.645069   -0.000008
     28          6           0        5.574080   -2.070597   -0.000007
     29          1           0        6.519313   -2.604343   -0.000014
     30          6           0        4.374493   -2.740375    0.000003
     31          1           0        4.358817   -3.825707    0.000004
     32          6           0        3.131973   -2.048659    0.000010
     33          1           0        2.212097   -2.628464    0.000016
     34          6           0        3.050288   -0.660416    0.000007
     35          6           0        6.613248    0.258630   -0.000014
     36          1           0        7.674918    0.049357   -0.000015
     37         16           0        5.996833    1.845969   -0.000013
     38          7           0        4.393098    1.410556   -0.000003
 ---------------------------------------------------------------------
                    Distance matrix (angstroms):
                    1          2          3          4          5
     1  N    0.000000
     2  C    1.413661   0.000000
     3  C    1.385713   2.334483   0.000000
     4  C    2.230393   2.340042   1.393347   0.000000
     5  C    2.250372   1.458087   2.292136   1.427456   0.000000
     6  C    3.643665   2.703640   3.514679   2.292135   1.393346
     7  C    3.688437   3.628497   2.703640   1.458087   2.340042
     8  N    4.247355   3.688438   3.643665   2.250372   2.230393
     9  O    2.335930   1.230827   3.501014   3.553935   2.466430
    10  O    4.610679   4.771056   3.407976   2.466430   3.553935
    11  H    5.261944   4.651892   4.626039   3.235733   3.201109
    12  H    1.014989   2.154330   2.115302   3.201110   3.235732
    13  C    6.089915   4.932015   6.055039   4.790159   3.875221
    14  C    7.211260   5.936013   7.342757   6.142146   5.087427
    15  C    7.224751   5.847427   7.618804   6.582962   5.329064
    16  H    8.228692   6.834289   8.677386   7.663168   6.392402
    17  C    6.145023   4.736718   6.717222   5.849222   4.482985
    18  H    6.458511   5.051963   7.215279   6.507919   5.092794
    19  C    4.796559   3.408287   5.302018   4.434191   3.060937
    20  H    4.028832   2.615441   4.762018   4.149043   2.721895
    21  C    4.722129   3.505627   4.853074   3.718782   2.582692
    22  C    8.391325   7.179889   8.374511   7.089263   6.193948
    23  H    9.400908   8.152984   9.432373   8.160042   7.228146
    24  S    8.267882   7.244758   7.970359   6.598600   6.018007
    25  N    6.625057   5.655736   6.309620   4.941549   4.379245
    26  C    2.979450   4.382055   2.541092   3.875222   4.790162
    27  C    4.427961   5.825448   3.853501   5.087427   6.142148
    28  C    5.247717   6.565527   4.341179   5.329064   6.582963
    29  H    6.314809   7.644846   5.426565   6.392401   7.663168
    30  C    4.954843   6.118681   3.787765   4.482984   5.849222
    31  H    5.880341   6.952079   4.624606   5.092792   6.507916
    32  C    3.745078   4.793656   2.465291   3.060935   4.434189
    33  H    4.048825   4.831864   2.665357   2.721892   4.149041
    34  C    2.490450   3.711389   1.450856   2.582692   3.718782
    35  C    5.119526   6.529632   4.862909   6.193949   7.089266
    36  H    6.201335   7.610880   5.917804   7.228146   8.160045
    37  S    4.404691   5.730242   4.624825   6.018009   6.598605
    38  N    2.776067   4.144102   2.990498   4.379248   4.941554
                    6          7          8          9         10
     6  C    0.000000
     7  C    2.334483   0.000000
     8  N    1.385714   1.413660   0.000000
     9  O    3.407976   4.771056   4.610679   0.000000
    10  O    3.501014   1.230827   2.335929   5.948936   0.000000
    11  H    2.115301   2.154332   1.014990   5.497681   2.677438
    12  H    4.626038   4.651893   5.261944   2.677435   5.497682
    13  C    2.541092   4.382052   2.979448   5.197063   5.256387
    14  C    3.853501   5.825444   4.427958   5.944000   6.704688
    15  C    4.341178   6.565524   5.247714   5.560094   7.582597
    16  H    5.426565   7.644843   6.314808   6.442148   8.646490
    17  C    3.787765   6.118680   4.954843   4.293078   7.249562
    18  H    4.624607   6.952080   5.880341   4.355342   8.123833
    19  C    2.465292   4.793656   3.745078   3.181527   5.965347
    20  H    2.665357   4.831865   4.048826   2.152150   6.055380
    21  C    1.450856   3.711388   2.490450   3.758398   4.801061
    22  C    4.862908   6.529626   5.119522   7.281955   7.229929
    23  H    5.917804   7.610874   6.201331   8.167071   8.295024
    24  S    4.624823   5.730235   4.404686   7.625060   6.188093
    25  N    2.990497   4.144096   2.776062   6.144363   4.745482
    26  C    6.055040   4.932015   6.089915   5.256391   5.197062
    27  C    7.342757   5.936011   7.211258   6.704692   5.943996
    28  C    7.618803   5.847424   7.224748   7.582600   5.560090
    29  H    8.677384   6.834286   8.228688   8.646493   6.442143
    30  C    6.717219   4.736714   6.145018   7.249563   4.293072
    31  H    7.215274   5.051957   6.458504   8.123833   4.355335
    32  C    5.302015   3.408284   4.796555   5.965347   3.181524
    33  H    4.762014   2.615437   4.028827   6.055379   2.152145
    34  C    4.853073   3.505626   4.722128   4.801062   3.758396
    35  C    8.374513   7.179888   8.391325   7.229936   7.281952
    36  H    9.432374   8.152983   9.400907   8.295031   8.167067
    37  S    7.970362   7.244759   8.267884   6.188101   7.625059
    38  N    6.309623   5.655737   6.625059   4.745490   6.144363
                   11         12         13         14         15
    11  H    0.000000
    12  H    6.276663   0.000000
    13  C    2.702785   7.024054   0.000000
    14  C    4.116848   8.083244   1.450698   0.000000
    15  C    5.163189   7.984686   2.496475   1.425632   0.000000
    16  H    6.178472   8.949460   3.480598   2.182916   1.085519
    17  C    5.140210   6.824090   2.816097   2.405876   1.373903
    18  H    6.152186   7.008536   3.900857   3.398781   2.134778
    19  C    4.122096   5.542483   2.422068   2.801790   2.442205
    20  H    4.642485   4.663692   3.413917   3.888589   3.407953
    21  C    2.745808   5.624908   1.447516   2.506594   2.891043
    22  C    4.553092   9.304375   2.323275   1.390208   2.550523
    23  H    5.617708  10.293354   3.377745   2.229014   2.984582
    24  S    3.590193   9.249209   2.454800   2.529598   3.939316
    25  N    2.071291   7.614845   1.339325   2.362177   3.676023
    26  C    7.024056   2.702793   8.595832   9.870599  10.071113
    27  C    8.083245   4.116857   9.870597  11.188303  11.457407
    28  C    7.984685   5.163197  10.071109  11.457404  11.892477
    29  H    8.949458   6.178480  11.108451  12.505680  12.965542
    30  C    6.824088   5.140217   9.072234  10.492497  11.050774
    31  H    7.008532   6.152190   9.433881  10.876947  11.551142
    32  C    5.542482   4.122099   7.687019   9.096788   9.631390
    33  H    4.663689   4.642488   6.992404   8.430440   9.094270
    34  C    5.624909   2.745812   7.370866   8.705565   9.046447
    35  C    9.304377   4.553102  10.915605  12.176218  12.321293
    36  H   10.293354   5.617718  11.972827  13.245157  13.402293
    37  S    9.249212   3.590202  10.471739  11.615913  11.573097
    38  N    7.614849   2.071301   8.816367   9.979337   9.989012
                   16         17         18         19         20
    16  H    0.000000
    17  C    2.149130   0.000000
    18  H    2.481829   1.085446   0.000000
    19  C    3.432617   1.422085   2.159409   0.000000
    20  H    4.307284   2.165290   2.458007   1.087356   0.000000
    21  C    3.976555   2.465714   3.425101   1.390644   2.139106
    22  C    2.864514   3.742466   4.665220   4.176465   5.263595
    23  H    2.894400   4.321506   5.100261   5.004001   6.083842
    24  S    4.480878   4.864826   5.903475   4.834827   5.860441
    25  N    4.543150   4.150973   5.236376   3.681930   4.590255
    26  C   11.108456   9.072241   9.433890   7.687025   6.992412
    27  C   12.505684  10.492503  10.876956   9.096793   8.430447
    28  C   12.965543  11.050777  11.551148   9.631393   9.094276
    29  H   14.040522  12.134296  12.636433  10.714376  10.179388
    30  C   12.134294  10.323927  10.926312   8.904042   8.497513
    31  H   12.636428  10.926309  11.599200   9.519465   9.210503
    32  C   10.714374   8.904042   9.519467   7.484992   7.101737
    33  H   10.179383   8.497510   9.210502   7.101735   6.870872
    34  C   10.111181   8.166568   8.661424   6.749778   6.205604
    35  C   13.340414  11.264530  11.537350   9.908260   9.137995
    36  H   14.422354  12.346255  12.612368  10.990278  10.217876
    37  S   12.539106  10.409826  10.543199   9.131060   8.246147
    38  N   10.977521   8.867873   9.079049   7.552081   6.716546
                   21         22         23         24         25
    21  C    0.000000
    22  C    3.679582   0.000000
    23  H    4.678780   1.082099   0.000000
    24  S    3.868345   1.702824   2.458411   0.000000
    25  N    2.468211   2.501200   3.552915   1.661791   0.000000
    26  C    7.370869  10.915604  11.972827  10.471735   8.816363
    27  C    8.705566  12.176215  13.245155  11.615906   9.979331
    28  C    9.046446  12.321287  13.402287  11.573087   9.989003
    29  H   10.111180  13.340406  14.422346  12.539094  10.977510
    30  C    8.166565  11.264521  12.346247  10.409814   8.867862
    31  H    8.661419  11.537337  12.612355  10.543183   9.079035
    32  C    6.749775   9.908253  10.990270   9.131050   7.552072
    33  H    6.205599   9.137984  10.217866   8.246134   6.716534
    34  C    6.241926   9.671883  10.742598   9.124464   7.481085
    35  C    9.671886  13.236605  14.291484  12.784496  11.132193
    36  H   10.742600  14.291483  15.350152  13.802496  12.155996
    37  S    9.124470  12.784501  13.802501  12.549037  10.888321
    38  N    7.481091  11.132197  12.156001  10.888321   9.227992
                   26         27         28         29         30
    26  C    0.000000
    27  C    1.450698   0.000000
    28  C    2.496476   1.425632   0.000000
    29  H    3.480598   2.182915   1.085518   0.000000
    30  C    2.816098   2.405876   1.373904   2.149129   0.000000
    31  H    3.900857   3.398780   2.134778   2.481829   1.085445
    32  C    2.422068   2.801789   2.442206   3.432617   1.422085
    33  H    3.413918   3.888589   3.407953   4.307284   2.165290
    34  C    1.447516   2.506594   2.891044   3.976555   2.465715
    35  C    2.323275   1.390209   2.550523   2.864514   3.742466
    36  H    3.377745   2.229014   2.984581   2.894399   4.321506
    37  S    2.454800   2.529598   3.939316   4.480877   4.864827
    38  N    1.339325   2.362177   3.676023   4.543149   4.150973
                   31         32         33         34         35
    31  H    0.000000
    32  C    2.159409   0.000000
    33  H    2.458007   1.087357   0.000000
    34  C    3.425101   1.390644   2.139107   0.000000
    35  C    4.665219   4.176465   5.263596   3.679583   0.000000
    36  H    5.100259   5.004000   6.083842   4.678780   1.082099
    37  S    5.903474   4.834827   5.860442   3.868345   1.702825
    38  N    5.236375   3.681929   4.590256   2.468211   2.501200
                   36         37         38
    36  H    0.000000
    37  S    2.458411   0.000000
    38  N    3.552915   1.661791   0.000000
 Stoichiometry    C20H10N4O2S2
 Framework group  C1[X(C20H10N4O2S2)]
 Deg. of freedom   108
 Full point group                 C1      NOp   1
 Largest Abelian subgroup         C1      NOp   1
 Largest concise Abelian subgroup C1      NOp   1
                         Standard orientation:                         
 ---------------------------------------------------------------------
 Center     Atomic      Atomic             Coordinates (Angstroms)
 Number     Number       Type             X           Y           Z
 ---------------------------------------------------------------------
      1          7           0        1.617241    1.376424    0.000010
      2          6           0        0.266822    1.794523    0.000009
      3          6           0        1.757338   -0.002189    0.000014
      4          6           0        0.470564   -0.536632    0.000028
      5          6           0       -0.470565    0.536637    0.000028
      6          6           0       -1.757338    0.002194    0.000008
      7          6           0       -0.266823   -1.794518    0.000000
      8          7           0       -1.617241   -1.376420   -0.000007
      9          8           0       -0.087738    2.973176    0.000007
     10          8           0        0.087737   -2.973171    0.000000
     11          1           0       -2.410373   -2.009781    0.000003
     12          1           0        2.410370    2.009788    0.000009
     13          6           0       -4.297267   -0.074664   -0.000002
     14          6           0       -5.556836    0.645065   -0.000008
     15          6           0       -5.574084    2.070593   -0.000007
     16          1           0       -6.519319    2.604337   -0.000010
     17          6           0       -4.374499    2.740374   -0.000002
     18          1           0       -4.358826    3.825707   -0.000002
     19          6           0       -3.131977    2.048662    0.000003
     20          1           0       -2.212103    2.628468    0.000008
     21          6           0       -3.050289    0.660419    0.000003
     22          6           0       -6.613246   -0.258637   -0.000012
     23          1           0       -7.674917   -0.049367   -0.000021
     24         16           0       -5.996827   -1.845974   -0.000007
     25          7           0       -4.393093   -1.410557   -0.000001
     26          6           0        4.297268    0.074664   -0.000002
     27          6           0        5.556835   -0.645069   -0.000008
     28          6           0        5.574080   -2.070597   -0.000007
     29          1           0        6.519313   -2.604343   -0.000014
     30          6           0        4.374493   -2.740375    0.000003
     31          1           0        4.358817   -3.825707    0.000004
     32          6           0        3.131973   -2.048659    0.000010
     33          1           0        2.212097   -2.628464    0.000016
     34          6           0        3.050288   -0.660416    0.000007
     35          6           0        6.613248    0.258630   -0.000014
     36          1           0        7.674918    0.049357   -0.000015
     37         16           0        5.996833    1.845969   -0.000013
     38          7           0        4.393098    1.410556   -0.000003
 ---------------------------------------------------------------------
 Rotational constants (GHZ):      0.4341010      0.0706101      0.0607316
 Standard basis: 6-31+G(d,p) (6D, 7F)
 There are   590 symmetry adapted basis functions of A   symmetry.
 Integral buffers will be    131072 words long.
 Raffenetti 2 integral format.
 Two-electron integral symmetry is turned on.
   590 basis functions,  1014 primitive gaussians,   590 cartesian basis functions
   103 alpha electrons      103 beta electrons
       nuclear repulsion energy      2617.2331441727 Hartrees.
 NAtoms=   38 NActive=   38 NUniq=   38 SFac= 7.50D-01 NAtFMM=   80 NAOKFM=F Big=F
 One-electron integrals computed using PRISM.
 NBasis=   590 RedAO= T  NBF=   590
 NBsUse=   580 1.00D-06 NBFU=   580
 Harris functional with IExCor=20419 diagonalized for initial guess.
 ExpMin= 4.05D-02 ExpMax= 2.19D+04 ExpMxC= 3.30D+03 IAcc=2 IRadAn=         0 AccDes= 0.00D+00
 HarFok:  IExCor=20419 AccDes= 0.00D+00 IRadAn=         0 IDoV= 1
 ScaDFX=  1.000000  1.000000  1.000000  1.000000
 FoFCou: FMM=F IPFlag=           0 FMFlag=      100000 FMFlg1=           0
         NFxFlg=           0 DoJE=T BraDBF=F KetDBF=T FulRan=T
         Omega=  0.000000  0.000000  1.000000  0.000000  0.000000 ICntrl=     500 IOpCl=  0
         NMat0=    1 NMatS0=    1 NMatT0=    0 NMatD0=    1 NMtDS0=    0 NMtDT0=    0
         I1Cent=           4 NGrid=           0.
 Petite list used in FoFCou.
 Initial guess orbital symmetries:
       Occupied  (A) (A) (A) (A) (A) (A) (A) (A) (A) (A) (A) (A)
                 (A) (A) (A) (A) (A) (A) (A) (A) (A) (A) (A) (A)
                 (A) (A) (A) (A) (A) (A) (A) (A) (A) (A) (A) (A)
                 (A) (A) (A) (A) (A) (A) (A) (A) (A) (A) (A) (A)
                 (A) (A) (A) (A) (A) (A) (A) (A) (A) (A) (A) (A)
                 (A) (A) (A) (A) (A) (A) (A) (A) (A) (A) (A) (A)
                 (A) (A) (A) (A) (A) (A) (A) (A) (A) (A) (A) (A)
                 (A) (A) (A) (A) (A) (A) (A) (A) (A) (A) (A) (A)
                 (A) (A) (A) (A) (A) (A) (A)
       Virtual   (A) (A) (A) (A) (A) (A) (A) (A) (A) (A) (A) (A)
                 (A) (A) (A) (A) (A) (A) (A) (A) (A) (A) (A) (A)
                 (A) (A) (A) (A) (A) (A) (A) (A) (A) (A) (A) (A)
                 (A) (A) (A) (A) (A) (A) (A) (A) (A) (A) (A) (A)
                 (A) (A) (A) (A) (A) (A) (A) (A) (A) (A) (A) (A)
                 (A) (A) (A) (A) (A) (A) (A) (A) (A) (A) (A) (A)
                 (A) (A) (A) (A) (A) (A) (A) (A) (A) (A) (A) (A)
                 (A) (A) (A) (A) (A) (A) (A) (A) (A) (A) (A) (A)
                 (A) (A) (A) (A) (A) (A) (A) (A) (A) (A) (A) (A)
                 (A) (A) (A) (A) (A) (A) (A) (A) (A) (A) (A) (A)
                 (A) (A) (A) (A) (A) (A) (A) (A) (A) (A) (A) (A)
                 (A) (A) (A) (A) (A) (A) (A) (A) (A) (A) (A) (A)
                 (A) (A) (A) (A) (A) (A) (A) (A) (A) (A) (A) (A)
                 (A) (A) (A) (A) (A) (A) (A) (A) (A) (A) (A) (A)
                 (A) (A) (A) (A) (A) (A) (A) (A) (A) (A) (A) (A)
                 (A) (A) (A) (A) (A) (A) (A) (A) (A) (A) (A) (A)
                 (A) (A) (A) (A) (A) (A) (A) (A) (A) (A) (A) (A)
                 (A) (A) (A) (A) (A) (A) (A) (A) (A) (A) (A) (A)
                 (A) (A) (A) (A) (A) (A) (A) (A) (A) (A) (A) (A)
                 (A) (A) (A) (A) (A) (A) (A) (A) (A) (A) (A) (A)
                 (A) (A) (A) (A) (A) (A) (A) (A) (A) (A) (A) (A)
                 (A) (A) (A) (A) (A) (A) (A) (A) (A) (A) (A) (A)
                 (A) (A) (A) (A) (A) (A) (A) (A) (A) (A) (A) (A)
                 (A) (A) (A) (A) (A) (A) (A) (A) (A) (A) (A) (A)
                 (A) (A) (A) (A) (A) (A) (A) (A) (A) (A) (A) (A)
                 (A) (A) (A) (A) (A) (A) (A) (A) (A) (A) (A) (A)
                 (A) (A) (A) (A) (A) (A) (A) (A) (A) (A) (A) (A)
                 (A) (A) (A) (A) (A) (A) (A) (A) (A) (A) (A) (A)
                 (A) (A) (A) (A) (A) (A) (A) (A) (A) (A) (A) (A)
                 (A) (A) (A) (A) (A) (A) (A) (A) (A) (A) (A) (A)
                 (A) (A) (A) (A) (A) (A) (A) (A) (A) (A) (A) (A)
                 (A) (A) (A) (A) (A) (A) (A) (A) (A) (A) (A) (A)
                 (A) (A) (A) (A) (A) (A) (A) (A) (A) (A) (A) (A)
                 (A) (A) (A) (A) (A) (A) (A) (A) (A) (A) (A) (A)
                 (A) (A) (A) (A) (A) (A) (A) (A) (A) (A) (A) (A)
                 (A) (A) (A) (A) (A) (A) (A) (A) (A) (A) (A) (A)
                 (A) (A) (A) (A) (A) (A) (A) (A) (A) (A) (A) (A)
                 (A) (A) (A) (A) (A) (A) (A) (A) (A) (A) (A) (A)
                 (A) (A) (A) (A) (A) (A) (A) (A) (A) (A) (A) (A)
                 (A) (A) (A) (A) (A) (A) (A) (A) (A)
 The electronic state of the initial guess is 1-A.
 Requested convergence on RMS density matrix=1.00D-08 within 128 cycles.
 Requested convergence on MAX density matrix=1.00D-06.
 Requested convergence on             energy=1.00D-06.
 No special actions if energy rises.
 FoFJK:  IHMeth= 1 ICntrl=     0 DoSepK=T KAlg= 1 I1Cent= 0 FoldK=F
 FoFJK:  IHMeth= 1 ICntrl=     0 DoSepK=T KAlg= 1 I1Cent= 0 FoldK=F
 FoFJK:  IHMeth= 1 ICntrl=     0 DoSepK=T KAlg= 1 I1Cent= 0 FoldK=F
 FoFJK:  IHMeth= 1 ICntrl=     0 DoSepK=T KAlg= 1 I1Cent= 0 FoldK=F
 FoFJK:  IHMeth= 1 ICntrl=     0 DoSepK=T KAlg= 1 I1Cent= 0 FoldK=F
 FoFJK:  IHMeth= 1 ICntrl=     0 DoSepK=T KAlg= 1 I1Cent= 0 FoldK=F
 FoFJK:  IHMeth= 1 ICntrl=     0 DoSepK=T KAlg= 1 I1Cent= 0 FoldK=F
 FoFJK:  IHMeth= 1 ICntrl=     0 DoSepK=T KAlg= 1 I1Cent= 0 FoldK=F
 FoFJK:  IHMeth= 1 ICntrl=     0 DoSepK=T KAlg= 1 I1Cent= 0 FoldK=F
 FoFJK:  IHMeth= 1 ICntrl=     0 DoSepK=T KAlg= 1 I1Cent= 0 FoldK=F
 FoFJK:  IHMeth= 1 ICntrl=     0 DoSepK=T KAlg= 1 I1Cent= 0 FoldK=F
 FoFJK:  IHMeth= 1 ICntrl=     0 DoSepK=T KAlg= 1 I1Cent= 0 FoldK=F
 FoFJK:  IHMeth= 1 ICntrl=     0 DoSepK=T KAlg= 1 I1Cent= 0 FoldK=F
 FoFJK:  IHMeth= 1 ICntrl=     0 DoSepK=T KAlg= 1 I1Cent= 0 FoldK=F
 FoFJK:  IHMeth= 1 ICntrl=     0 DoSepK=T KAlg= 1 I1Cent= 0 FoldK=F
 FoFJK:  IHMeth= 1 ICntrl=     0 DoSepK=T KAlg= 1 I1Cent= 0 FoldK=F
 FoFJK:  IHMeth= 1 ICntrl=     0 DoSepK=T KAlg= 1 I1Cent= 0 FoldK=F
 SCF Done:  E(RCAM-B3LYP) =  -1933.45942257     A.U. after   17 cycles
             Convg  =    0.6803D-08             -V/T =  2.0069
 ExpMin= 4.05D-02 ExpMax= 2.19D+04 ExpMxC= 3.30D+03 IAcc=3 IRadAn=         5 AccDes= 0.00D+00
 HarFok:  IExCor=  205 AccDes= 0.00D+00 IRadAn=         5 IDoV=-2
 ScaDFX=  1.000000  1.000000  1.000000  1.000000
 Range of M.O.s used for correlation:    37   580
 NBasis=   590 NAE=   103 NBE=   103 NFC=    36 NFV=     0
 NROrb=    544 NOA=    67 NOB=    67 NVA=   477 NVB=   477

 **** Warning!!: The largest alpha MO coefficient is  0.13667945D+03

 Would need an additional 45785500000 words for in-memory AO integral storage.
 Orbital symmetries:
       Occupied  (A) (A) (A) (A) (A) (A) (A) (A) (A) (A) (A) (A)
                 (A) (A) (A) (A) (A) (A) (A) (A) (A) (A) (A) (A)
                 (A) (A) (A) (A) (A) (A) (A) (A) (A) (A) (A) (A)
                 (A) (A) (A) (A) (A) (A) (A) (A) (A) (A) (A) (A)
                 (A) (A) (A) (A) (A) (A) (A) (A) (A) (A) (A) (A)
                 (A) (A) (A) (A) (A) (A) (A) (A) (A) (A) (A) (A)
                 (A) (A) (A) (A) (A) (A) (A) (A) (A) (A) (A) (A)
                 (A) (A) (A) (A) (A) (A) (A) (A) (A) (A) (A) (A)
                 (A) (A) (A) (A) (A) (A) (A)
       Virtual   (A) (A) (A) (A) (A) (A) (A) (A) (A) (A) (A) (A)
                 (A) (A) (A) (A) (A) (A) (A) (A) (A) (A) (A) (A)
                 (A) (A) (A) (A) (A) (A) (A) (A) (A) (A) (A) (A)
                 (A) (A) (A) (A) (A) (A) (A) (A) (A) (A) (A) (A)
                 (A) (A) (A) (A) (A) (A) (A) (A) (A) (A) (A) (A)
                 (A) (A) (A) (A) (A) (A) (A) (A) (A) (A) (A) (A)
                 (A) (A) (A) (A) (A) (A) (A) (A) (A) (A) (A) (A)
                 (A) (A) (A) (A) (A) (A) (A) (A) (A) (A) (A) (A)
                 (A) (A) (A) (A) (A) (A) (A) (A) (A) (A) (A) (A)
                 (A) (A) (A) (A) (A) (A) (A) (A) (A) (A) (A) (A)
                 (A) (A) (A) (A) (A) (A) (A) (A) (A) (A) (A) (A)
                 (A) (A) (A) (A) (A) (A) (A) (A) (A) (A) (A) (A)
                 (A) (A) (A) (A) (A) (A) (A) (A) (A) (A) (A) (A)
                 (A) (A) (A) (A) (A) (A) (A) (A) (A) (A) (A) (A)
                 (A) (A) (A) (A) (A) (A) (A) (A) (A) (A) (A) (A)
                 (A) (A) (A) (A) (A) (A) (A) (A) (A) (A) (A) (A)
                 (A) (A) (A) (A) (A) (A) (A) (A) (A) (A) (A) (A)
                 (A) (A) (A) (A) (A) (A) (A) (A) (A) (A) (A) (A)
                 (A) (A) (A) (A) (A) (A) (A) (A) (A) (A) (A) (A)
                 (A) (A) (A) (A) (A) (A) (A) (A) (A) (A) (A) (A)
                 (A) (A) (A) (A) (A) (A) (A) (A) (A) (A) (A) (A)
                 (A) (A) (A) (A) (A) (A) (A) (A) (A) (A) (A) (A)
                 (A) (A) (A) (A) (A) (A) (A) (A) (A) (A) (A) (A)
                 (A) (A) (A) (A) (A) (A) (A) (A) (A) (A) (A) (A)
                 (A) (A) (A) (A) (A) (A) (A) (A) (A) (A) (A) (A)
                 (A) (A) (A) (A) (A) (A) (A) (A) (A) (A) (A) (A)
                 (A) (A) (A) (A) (A) (A) (A) (A) (A) (A) (A) (A)
                 (A) (A) (A) (A) (A) (A) (A) (A) (A) (A) (A) (A)
                 (A) (A) (A) (A) (A) (A) (A) (A) (A) (A) (A) (A)
                 (A) (A) (A) (A) (A) (A) (A) (A) (A) (A) (A) (A)
                 (A) (A) (A) (A) (A) (A) (A) (A) (A) (A) (A) (A)
                 (A) (A) (A) (A) (A) (A) (A) (A) (A) (A) (A) (A)
                 (A) (A) (A) (A) (A) (A) (A) (A) (A) (A) (A) (A)
                 (A) (A) (A) (A) (A) (A) (A) (A) (A) (A) (A) (A)
                 (A) (A) (A) (A) (A) (A) (A) (A) (A) (A) (A) (A)
                 (A) (A) (A) (A) (A) (A) (A) (A) (A) (A) (A) (A)
                 (A) (A) (A) (A) (A) (A) (A) (A) (A) (A) (A) (A)
                 (A) (A) (A) (A) (A) (A) (A) (A) (A) (A) (A) (A)
                 (A) (A) (A) (A) (A) (A) (A) (A) (A) (A) (A) (A)
                 (A) (A) (A) (A) (A) (A) (A) (A) (A)
    40 initial guesses have been made.
 Convergence on wavefunction:    0.001000000000000
 Iteration     1 Dimension    40 NMult    40
 CISAX will form    20 AO SS matrices at one time.
 FoFJK:  IHMeth= 1 ICntrl=     0 DoSepK=T KAlg= 1 I1Cent= 0 FoldK=F
 FoFJK:  IHMeth= 1 ICntrl=     0 DoSepK=T KAlg= 1 I1Cent= 0 FoldK=F
 FoFJK:  IHMeth= 1 ICntrl=     0 DoSepK=T KAlg= 1 I1Cent= 0 FoldK=F
 FoFJK:  IHMeth= 1 ICntrl=     0 DoSepK=T KAlg= 1 I1Cent= 0 FoldK=F
 New state      3 was old state      6
 New state      4 was old state      3
 New state      5 was old state      7
 New state      6 was old state      4
 New state      7 was old state      5
 No map to state      8
 New state      9 was old state     10
 New state     10 was old state      9
 Iteration     2 Dimension    60 NMult    60
 FoFJK:  IHMeth= 1 ICntrl=     0 DoSepK=T KAlg= 1 I1Cent= 0 FoldK=F
 FoFJK:  IHMeth= 1 ICntrl=     0 DoSepK=T KAlg= 1 I1Cent= 0 FoldK=F
 New state      6 was old state      7
 New state      7 was old state      6
 New state      9 was old state     10
 New state     10 was old state      9
 Iteration     3 Dimension    80 NMult    80
 FoFJK:  IHMeth= 1 ICntrl=     0 DoSepK=T KAlg= 1 I1Cent= 0 FoldK=F
 FoFJK:  IHMeth= 1 ICntrl=     0 DoSepK=T KAlg= 1 I1Cent= 0 FoldK=F
 Iteration     4 Dimension   100 NMult   100
 FoFJK:  IHMeth= 1 ICntrl=     0 DoSepK=T KAlg= 1 I1Cent= 0 FoldK=F
 FoFJK:  IHMeth= 1 ICntrl=     0 DoSepK=T KAlg= 1 I1Cent= 0 FoldK=F
 Iteration     5 Dimension   120 NMult   120
 FoFJK:  IHMeth= 1 ICntrl=     0 DoSepK=T KAlg= 1 I1Cent= 0 FoldK=F
 FoFJK:  IHMeth= 1 ICntrl=     0 DoSepK=T KAlg= 1 I1Cent= 0 FoldK=F
 Iteration     6 Dimension   136 NMult   136
 FoFJK:  IHMeth= 1 ICntrl=     0 DoSepK=T KAlg= 1 I1Cent= 0 FoldK=F
 FoFJK:  IHMeth= 1 ICntrl=     0 DoSepK=T KAlg= 1 I1Cent= 0 FoldK=F
 Iteration     7 Dimension   140 NMult   140
 FoFJK:  IHMeth= 1 ICntrl=     0 DoSepK=T KAlg= 1 I1Cent= 0 FoldK=F
 FoFJK:  IHMeth= 1 ICntrl=     0 DoSepK=T KAlg= 1 I1Cent= 0 FoldK=F
 Iteration     8 Dimension   144 NMult   144
 FoFJK:  IHMeth= 1 ICntrl=     0 DoSepK=T KAlg= 1 I1Cent= 0 FoldK=F
 FoFJK:  IHMeth= 1 ICntrl=     0 DoSepK=T KAlg= 1 I1Cent= 0 FoldK=F
 ***********************************************************************
 Excited states from <AA,BB:AA,BB> singles matrix:
 ***********************************************************************
 
 Ground to excited state transition electric dipole moments (Au):
       state          X           Y           Z        Dip. S.      Osc.
         1        -3.3408     -0.0627      0.0000     11.1648      0.6465
         2         0.0000      0.0000      0.0000      0.0000      0.0000
         3         0.0000      0.0000      0.0000      0.0000      0.0000
         4        -0.1247     -0.6672      0.0000      0.4608      0.0414
         5         0.0000      0.0000      0.0225      0.0005      0.0000
         6         1.7251     -0.4101      0.0000      3.1441      0.3069
         7         0.0000      0.0000      0.0000      0.0000      0.0000
         8         0.0000      0.0000      0.0000      0.0000      0.0000
         9        -0.4075     -1.4625      0.0000      2.3051      0.2553
        10         0.0002      0.0008      0.0000      0.0000      0.0000
 Ground to excited state transition velocity dipole moments (Au):
       state          X           Y           Z        Dip. S.      Osc.
         1         0.2901      0.0081      0.0000      0.0842      0.6465
         2         0.0000      0.0000      0.0000      0.0000      0.0000
         3         0.0000      0.0000      0.0000      0.0000      0.0000
         4         0.0120      0.0932      0.0000      0.0088      0.0437
         5         0.0000      0.0000     -0.0082      0.0001      0.0003
         6        -0.2477      0.0623      0.0000      0.0652      0.2969
         7         0.0000      0.0000      0.0000      0.0000      0.0000
         8         0.0000      0.0000      0.0000      0.0000      0.0000
         9         0.0599      0.2256      0.0000      0.0545      0.2187
        10         0.0000     -0.0001      0.0000      0.0000      0.0000
 Ground to excited state transition magnetic dipole moments (Au):
       state          X           Y           Z
         1         0.0000      0.0000      0.0000
         2         0.0000      0.0000     -0.0148
         3         0.0000      0.0000     -1.0201
         4         0.0000      0.0000      0.0000
         5         0.0000      0.0000     -0.0001
         6         0.0000      0.0000      0.0000
         7         0.0000      0.0000      0.5603
         8         0.1420     -0.7056      0.0000
         9         0.0000      0.0000      0.0014
        10         0.0000      0.0000      2.5901
 <0|del|b> * <b|rxdel|0> + <0|del|b> * <b|delr+rdel|0>
 Rotatory Strengths (R) in cgs (10**-40 erg-esu-cm/Gauss)
       state          XX          YY          ZZ    R(velocity)
         1         0.0007      0.0047      0.0020      0.0025
 Total R(velocity) tensor for State=          1
                 1             2             3 
      1   0.736509D-03 -0.263824D-01 -0.150596D-02
      2  -0.130237D-03  0.466516D-02  0.873184D-03
      3   0.776509D-05 -0.278251D-03  0.204048D-02
 R(velocity) tensor in inp. orien. for State=          1
                 1             2             3 
      1   0.736509D-03 -0.263824D-01 -0.150596D-02
      2  -0.130237D-03  0.466516D-02  0.873184D-03
      3   0.776510D-05 -0.278251D-03  0.204048D-02
         2         0.0008     -0.0008      0.0000      0.0000
 Total R(velocity) tensor for State=          2
                 1             2             3 
      1   0.786165D-03  0.351129D-02  0.191209D-02
      2  -0.146917D-05 -0.832958D-03 -0.286614D-03
      3  -0.585641D-05  0.154402D-04  0.000000D+00
 R(velocity) tensor in inp. orien. for State=          2
                 1             2             3 
      1   0.786165D-03  0.351129D-02  0.191209D-02
      2  -0.146914D-05 -0.832958D-03 -0.286614D-03
      3  -0.585641D-05  0.154402D-04  0.000000D+00
         3        -0.0025     -0.0040      0.0000     -0.0022
 Total R(velocity) tensor for State=          3
                 1             2             3 
      1  -0.246949D-02  0.369104D-02  0.874593D-02
      2  -0.258239D-03 -0.401009D-02 -0.718350D-02
      3   0.124910D-03  0.534541D-04  0.000000D+00
 R(velocity) tensor in inp. orien. for State=          3
                 1             2             3 
      1  -0.246949D-02  0.369104D-02  0.874593D-02
      2  -0.258239D-03 -0.401009D-02 -0.718350D-02
      3   0.124910D-03  0.534541D-04  0.000000D+00
         4         0.0000     -0.0001      0.0017      0.0005
 Total R(velocity) tensor for State=          4
                 1             2             3 
      1  -0.270860D-04  0.349235D-05 -0.888773D-02
      2   0.631207D-03 -0.810456D-04  0.847440D-02
      3   0.129614D-03 -0.166421D-04  0.166298D-02
 R(velocity) tensor in inp. orien. for State=          4
                 1             2             3 
      1  -0.270860D-04  0.349235D-05 -0.888773D-02
      2   0.631207D-03 -0.810456D-04  0.847440D-02
      3   0.129614D-03 -0.166421D-04  0.166298D-02
         5         0.0010      0.0018      0.0000      0.0009
 Total R(velocity) tensor for State=          5
                 1             2             3 
      1   0.971776D-03 -0.231471D-02  0.000000D+00
      2  -0.305029D-03  0.183183D-02  0.000000D+00
      3  -0.237581D-04  0.247985D-04  0.000000D+00
 R(velocity) tensor in inp. orien. for State=          5
                 1             2             3 
      1   0.971776D-03 -0.231471D-02  0.000000D+00
      2  -0.305029D-03  0.183183D-02  0.000000D+00
      3  -0.237581D-04  0.247985D-04  0.000000D+00
         6        -0.0042     -0.0005      0.0015     -0.0010
 Total R(velocity) tensor for State=          6
                 1             2             3 
      1  -0.416154D-02 -0.165527D-01 -0.134078D-01
      2  -0.118531D-03 -0.471509D-03  0.573075D-02
      3  -0.269023D-05 -0.107124D-04  0.151650D-02
 R(velocity) tensor in inp. orien. for State=          6
                 1             2             3 
      1  -0.416154D-02 -0.165527D-01 -0.134078D-01
      2  -0.118531D-03 -0.471509D-03  0.573075D-02
      3  -0.269023D-05 -0.107124D-04  0.151650D-02
         7         0.0000     -0.0002      0.0000     -0.0001
 Total R(velocity) tensor for State=          7
                 1             2             3 
      1  -0.490106D-04  0.711291D-03  0.123789D-01
      2   0.367762D-04 -0.194417D-03 -0.473198D-02
      3  -0.567750D-04 -0.243836D-03  0.000000D+00
 R(velocity) tensor in inp. orien. for State=          7
                 1             2             3 
      1  -0.490107D-04  0.711291D-03  0.123789D-01
      2   0.367762D-04 -0.194417D-03 -0.473198D-02
      3  -0.567750D-04 -0.243836D-03  0.000000D+00
         8        -0.0049      0.0003     -0.0039     -0.0028
 Total R(velocity) tensor for State=          8
                 1             2             3 
      1  -0.491016D-02  0.175345D-02  0.000000D+00
      2  -0.922938D-03  0.329587D-03  0.000000D+00
      3   0.808351D-04 -0.372917D-03 -0.388328D-02
 R(velocity) tensor in inp. orien. for State=          8
                 1             2             3 
      1  -0.491016D-02  0.175345D-02  0.000000D+00
      2  -0.922939D-03  0.329587D-03  0.000000D+00
      3   0.808351D-04 -0.372917D-03 -0.388328D-02
         9        -0.0004      0.0001      0.0035      0.0011
 Total R(velocity) tensor for State=          9
                 1             2             3 
      1  -0.419471D-03  0.111320D-03 -0.437022D-01
      2  -0.533046D-03  0.141450D-03 -0.107688D+00
      3  -0.782806D-02  0.207761D-02  0.349440D-02
 R(velocity) tensor in inp. orien. for State=          9
                 1             2             3 
      1  -0.419471D-03  0.111320D-03 -0.437022D-01
      2  -0.533046D-03  0.141450D-03 -0.107688D+00
      3  -0.782806D-02  0.207761D-02  0.349440D-02
        10         0.0027      0.0002      0.0000      0.0010
 Total R(velocity) tensor for State=         10
                 1             2             3 
      1   0.265737D-02 -0.596650D-03  0.687331D-01
      2  -0.510806D-04  0.225412D-03  0.991863D-01
      3   0.630006D-02 -0.176139D-02  0.000000D+00
 R(velocity) tensor in inp. orien. for State=         10
                 1             2             3 
      1   0.265737D-02 -0.596650D-03  0.687331D-01
      2  -0.510805D-04  0.225412D-03  0.991863D-01
      3   0.630006D-02 -0.176139D-02  0.000000D+00
 1/2[<0|r|b>*<b|rxdel|0> + (<0|rxdel|b>*<b|r|0>)*]
 Rotatory Strengths (R) in cgs (10**-40 erg-esu-cm/Gauss)
       state          XX          YY          ZZ     R(length)     R(au)
         1         0.0063      0.0008      0.0000      0.0024      0.0000
         2         0.0000      0.0000     -0.0001      0.0000      0.0000
         3         0.0000      0.0000     -0.0063     -0.0021      0.0000
         4        -0.0001      0.0016      0.0000      0.0005      0.0000
         5         0.0000      0.0000      0.0011      0.0004      0.0000
         6         0.0020     -0.0049      0.0000     -0.0010      0.0000
         7         0.0000      0.0000     -0.0019     -0.0006      0.0000
         8         0.0020     -0.0044      0.0000     -0.0008      0.0000
         9         0.0010      0.0025      0.0000      0.0012      0.0000
        10         0.0000      0.0000     -0.0046     -0.0015      0.0000
  1/2[<0|del|b>*<b|r|0> + (<0|r|b>*<b|del|0>)*] (Au)
       state          X           Y           Z        Dip. S.   Osc.(frdel)
         1        -0.9692     -0.0005      0.0000      0.9697      0.6465
         2         0.0000      0.0000      0.0000      0.0000      0.0000
         3         0.0000      0.0000      0.0000      0.0000      0.0000
         4        -0.0015     -0.0622      0.0000      0.0637      0.0425
         5         0.0000      0.0000     -0.0002      0.0002      0.0001
         6        -0.4272     -0.0255      0.0000      0.4528      0.3019
         7         0.0000      0.0000      0.0000      0.0000      0.0000
         8         0.0000      0.0000      0.0000      0.0000      0.0000
         9        -0.0244     -0.3300      0.0000      0.3544      0.2363
        10         0.0000      0.0000      0.0000      0.0000      0.0000
 Ground to excited state transition densities written to RWF  633

 Excitation energies and oscillator strengths:
 
 Excited State   1:      Singlet-A      2.3636 eV  524.57 nm  f=0.6465  <S**2>=0.000
     103 ->104         0.69842
 This state for optimization and/or second-order correction.
 Copying the excited state density for this state as the 1-particle RhoCI density.
 
 Excited State   2:      Singlet-A      3.0869 eV  401.65 nm  f=0.0000  <S**2>=0.000
     103 ->105         0.69144
 
 Excited State   3:      Singlet-A      3.6292 eV  341.63 nm  f=0.0000  <S**2>=0.000
      97 ->104        -0.14349
     100 ->104         0.47228
     100 ->106         0.22411
     102 ->104        -0.41220
     102 ->106        -0.10961
 
 Excited State   4:      Singlet-A      3.6697 eV  337.86 nm  f=0.0414  <S**2>=0.000
     102 ->105         0.14156
     103 ->106         0.67840
 
 Excited State   5:      Singlet-A      3.8017 eV  326.13 nm  f=0.0000  <S**2>=0.000
      99 ->104         0.62339
      99 ->106         0.26362
 
 Excited State   6:      Singlet-A      3.9842 eV  311.19 nm  f=0.3069  <S**2>=0.000
     100 ->105         0.10576
     101 ->104         0.61559
     102 ->105         0.28523
 
 Excited State   7:      Singlet-A      4.0043 eV  309.62 nm  f=0.0000  <S**2>=0.000
     100 ->104         0.39619
     101 ->105         0.29271
     102 ->104         0.47431
 
 Excited State   8:      Singlet-A      4.2482 eV  291.85 nm  f=0.0000  <S**2>=0.000
      96 ->104         0.58527
      96 ->106         0.25624
      99 ->105         0.19591
      99 ->109         0.13507
 
 Excited State   9:      Singlet-A      4.5209 eV  274.25 nm  f=0.2553  <S**2>=0.000
      97 ->105        -0.30896
      98 ->104         0.53061
     100 ->105        -0.16979
     102 ->114         0.13190
     103 ->115        -0.18648
 
 Excited State  10:      Singlet-A      4.5217 eV  274.20 nm  f=0.0000  <S**2>=0.000
      97 ->104         0.52242
      98 ->105        -0.34919
     100 ->104         0.10510
     102 ->115        -0.12887
     103 ->114         0.18713
 SavETr:  write IOETrn=   770 NScale= 10 NData=  16 NLR=1 LETran=     190.

 **********************************************************************

            Population analysis using the SCF density.

 **********************************************************************

 Orbital symmetries:
       Occupied  (A) (A) (A) (A) (A) (A) (A) (A) (A) (A) (A) (A)
                 (A) (A) (A) (A) (A) (A) (A) (A) (A) (A) (A) (A)
                 (A) (A) (A) (A) (A) (A) (A) (A) (A) (A) (A) (A)
                 (A) (A) (A) (A) (A) (A) (A) (A) (A) (A) (A) (A)
                 (A) (A) (A) (A) (A) (A) (A) (A) (A) (A) (A) (A)
                 (A) (A) (A) (A) (A) (A) (A) (A) (A) (A) (A) (A)
                 (A) (A) (A) (A) (A) (A) (A) (A) (A) (A) (A) (A)
                 (A) (A) (A) (A) (A) (A) (A) (A) (A) (A) (A) (A)
                 (A) (A) (A) (A) (A) (A) (A)
       Virtual   (A) (A) (A) (A) (A) (A) (A) (A) (A) (A) (A) (A)
                 (A) (A) (A) (A) (A) (A) (A) (A) (A) (A) (A) (A)
                 (A) (A) (A) (A) (A) (A) (A) (A) (A) (A) (A) (A)
                 (A) (A) (A) (A) (A) (A) (A) (A) (A) (A) (A) (A)
                 (A) (A) (A) (A) (A) (A) (A) (A) (A) (A) (A) (A)
                 (A) (A) (A) (A) (A) (A) (A) (A) (A) (A) (A) (A)
                 (A) (A) (A) (A) (A) (A) (A) (A) (A) (A) (A) (A)
                 (A) (A) (A) (A) (A) (A) (A) (A) (A) (A) (A) (A)
                 (A) (A) (A) (A) (A) (A) (A) (A) (A) (A) (A) (A)
                 (A) (A) (A) (A) (A) (A) (A) (A) (A) (A) (A) (A)
                 (A) (A) (A) (A) (A) (A) (A) (A) (A) (A) (A) (A)
                 (A) (A) (A) (A) (A) (A) (A) (A) (A) (A) (A) (A)
                 (A) (A) (A) (A) (A) (A) (A) (A) (A) (A) (A) (A)
                 (A) (A) (A) (A) (A) (A) (A) (A) (A) (A) (A) (A)
                 (A) (A) (A) (A) (A) (A) (A) (A) (A) (A) (A) (A)
                 (A) (A) (A) (A) (A) (A) (A) (A) (A) (A) (A) (A)
                 (A) (A) (A) (A) (A) (A) (A) (A) (A) (A) (A) (A)
                 (A) (A) (A) (A) (A) (A) (A) (A) (A) (A) (A) (A)
                 (A) (A) (A) (A) (A) (A) (A) (A) (A) (A) (A) (A)
                 (A) (A) (A) (A) (A) (A) (A) (A) (A) (A) (A) (A)
                 (A) (A) (A) (A) (A) (A) (A) (A) (A) (A) (A) (A)
                 (A) (A) (A) (A) (A) (A) (A) (A) (A) (A) (A) (A)
                 (A) (A) (A) (A) (A) (A) (A) (A) (A) (A) (A) (A)
                 (A) (A) (A) (A) (A) (A) (A) (A) (A) (A) (A) (A)
                 (A) (A) (A) (A) (A) (A) (A) (A) (A) (A) (A) (A)
                 (A) (A) (A) (A) (A) (A) (A) (A) (A) (A) (A) (A)
                 (A) (A) (A) (A) (A) (A) (A) (A) (A) (A) (A) (A)
                 (A) (A) (A) (A) (A) (A) (A) (A) (A) (A) (A) (A)
                 (A) (A) (A) (A) (A) (A) (A) (A) (A) (A) (A) (A)
                 (A) (A) (A) (A) (A) (A) (A) (A) (A) (A) (A) (A)
                 (A) (A) (A) (A) (A) (A) (A) (A) (A) (A) (A) (A)
                 (A) (A) (A) (A) (A) (A) (A) (A) (A) (A) (A) (A)
                 (A) (A) (A) (A) (A) (A) (A) (A) (A) (A) (A) (A)
                 (A) (A) (A) (A) (A) (A) (A) (A) (A) (A) (A) (A)
                 (A) (A) (A) (A) (A) (A) (A) (A) (A) (A) (A) (A)
                 (A) (A) (A) (A) (A) (A) (A) (A) (A) (A) (A) (A)
                 (A) (A) (A) (A) (A) (A) (A) (A) (A) (A) (A) (A)
                 (A) (A) (A) (A) (A) (A) (A) (A) (A) (A) (A) (A)
                 (A) (A) (A) (A) (A) (A) (A) (A) (A) (A) (A) (A)
                 (A) (A) (A) (A) (A) (A) (A) (A) (A)
 The electronic state is 1-A.
 Alpha  occ. eigenvalues --  -89.04310 -89.04310 -19.20226 -19.20226 -14.45063
 Alpha  occ. eigenvalues --  -14.45063 -14.44789 -14.44789 -10.37489 -10.37488
 Alpha  occ. eigenvalues --  -10.34180 -10.34179 -10.33438 -10.33438 -10.33089
 Alpha  occ. eigenvalues --  -10.33089 -10.30703 -10.30703 -10.30507 -10.30506
 Alpha  occ. eigenvalues --  -10.29920 -10.29920 -10.29009 -10.29009 -10.28872
 Alpha  occ. eigenvalues --  -10.28872 -10.26296 -10.26252  -8.09962  -8.09962
 Alpha  occ. eigenvalues --   -6.06558  -6.06558  -6.06033  -6.06033  -6.05804
 Alpha  occ. eigenvalues --   -6.05804  -1.12547  -1.11954  -1.07537  -1.07524
 Alpha  occ. eigenvalues --   -1.05285  -1.03916  -0.95354  -0.95344  -0.91189
 Alpha  occ. eigenvalues --   -0.91165  -0.88472  -0.86022  -0.85034  -0.84785
 Alpha  occ. eigenvalues --   -0.84719  -0.79693  -0.76898  -0.74508  -0.72561
 Alpha  occ. eigenvalues --   -0.71609  -0.69808  -0.68791  -0.68269  -0.67902
 Alpha  occ. eigenvalues --   -0.64217  -0.62097  -0.61038  -0.59990  -0.57790
 Alpha  occ. eigenvalues --   -0.57119  -0.56719  -0.55752  -0.55749  -0.54605
 Alpha  occ. eigenvalues --   -0.53857  -0.53645  -0.52155  -0.51713  -0.51526
 Alpha  occ. eigenvalues --   -0.51417  -0.51097  -0.50175  -0.49675  -0.48860
 Alpha  occ. eigenvalues --   -0.45912  -0.45880  -0.45217  -0.44820  -0.44548
 Alpha  occ. eigenvalues --   -0.44441  -0.43867  -0.43542  -0.43373  -0.41409
 Alpha  occ. eigenvalues --   -0.40774  -0.38355  -0.38045  -0.37605  -0.37088
 Alpha  occ. eigenvalues --   -0.33822  -0.32811  -0.32641  -0.32004  -0.31777
 Alpha  occ. eigenvalues --   -0.30499  -0.29752  -0.23378
 Alpha virt. eigenvalues --   -0.07763  -0.05269  -0.02622   0.01951   0.01990
 Alpha virt. eigenvalues --    0.02256   0.02702   0.02829   0.03905   0.03919
 Alpha virt. eigenvalues --    0.04176   0.04196   0.04878   0.04964   0.05338
 Alpha virt. eigenvalues --    0.05466   0.06118   0.06178   0.06326   0.07166
 Alpha virt. eigenvalues --    0.07275   0.07931   0.07956   0.08604   0.08854
 Alpha virt. eigenvalues --    0.09060   0.09155   0.09842   0.10144   0.10665
 Alpha virt. eigenvalues --    0.10841   0.11020   0.12094   0.12345   0.12473
 Alpha virt. eigenvalues --    0.12850   0.12980   0.13033   0.13992   0.14316
 Alpha virt. eigenvalues --    0.14414   0.14525   0.14990   0.15309   0.15806
 Alpha virt. eigenvalues --    0.16093   0.16555   0.16906   0.16962   0.17291
 Alpha virt. eigenvalues --    0.17343   0.18059   0.18117   0.18868   0.18916
 Alpha virt. eigenvalues --    0.19288   0.19384   0.19592   0.19617   0.20209
 Alpha virt. eigenvalues --    0.20366   0.21225   0.21266   0.21327   0.21352
 Alpha virt. eigenvalues --    0.21527   0.21679   0.21979   0.22809   0.22851
 Alpha virt. eigenvalues --    0.22989   0.23462   0.23516   0.23556   0.24181
 Alpha virt. eigenvalues --    0.24560   0.24939   0.25202   0.25214   0.25385
 Alpha virt. eigenvalues --    0.26054   0.26141   0.26559   0.26753   0.27026
 Alpha virt. eigenvalues --    0.27251   0.27287   0.27459   0.28353   0.28551
 Alpha virt. eigenvalues --    0.28556   0.28558   0.29215   0.29276   0.29822
 Alpha virt. eigenvalues --    0.30101   0.30635   0.30807   0.31040   0.31148
 Alpha virt. eigenvalues --    0.31923   0.31924   0.32113   0.32173   0.32635
 Alpha virt. eigenvalues --    0.32700   0.32875   0.33257   0.33567   0.33850
 Alpha virt. eigenvalues --    0.34180   0.34814   0.35218   0.35699   0.35787
 Alpha virt. eigenvalues --    0.36147   0.37128   0.37205   0.37282   0.37573
 Alpha virt. eigenvalues --    0.37801   0.38272   0.38413   0.39189   0.39746
 Alpha virt. eigenvalues --    0.40936   0.40936   0.41506   0.42881   0.43443
 Alpha virt. eigenvalues --    0.43774   0.44381   0.45112   0.45675   0.46652
 Alpha virt. eigenvalues --    0.47183   0.47436   0.49302   0.49371   0.49540
 Alpha virt. eigenvalues --    0.50428   0.50776   0.52966   0.53540   0.53650
 Alpha virt. eigenvalues --    0.53909   0.54353   0.54834   0.55350   0.56131
 Alpha virt. eigenvalues --    0.56302   0.56337   0.57412   0.58156   0.61310
 Alpha virt. eigenvalues --    0.61537   0.64468   0.64845   0.66079   0.66253
 Alpha virt. eigenvalues --    0.68464   0.68541   0.68574   0.69044   0.69792
 Alpha virt. eigenvalues --    0.70628   0.71845   0.72610   0.72739   0.73509
 Alpha virt. eigenvalues --    0.73800   0.74378   0.75281   0.76377   0.76705
 Alpha virt. eigenvalues --    0.76790   0.77095   0.78040   0.78101   0.78818
 Alpha virt. eigenvalues --    0.78969   0.79183   0.79443   0.80514   0.81301
 Alpha virt. eigenvalues --    0.81308   0.81480   0.81955   0.82477   0.82745
 Alpha virt. eigenvalues --    0.83575   0.84586   0.85083   0.85744   0.86053
 Alpha virt. eigenvalues --    0.86088   0.86885   0.88797   0.89742   0.89971
 Alpha virt. eigenvalues --    0.90006   0.91118   0.91573   0.91689   0.92413
 Alpha virt. eigenvalues --    0.94022   0.94375   0.94577   0.95212   0.97138
 Alpha virt. eigenvalues --    0.97297   0.99967   1.01536   1.01962   1.02611
 Alpha virt. eigenvalues --    1.02748   1.04256   1.04539   1.05309   1.06492
 Alpha virt. eigenvalues --    1.07087   1.07118   1.09293   1.09565   1.10044
 Alpha virt. eigenvalues --    1.10235   1.10612   1.10852   1.12457   1.13301
 Alpha virt. eigenvalues --    1.13580   1.15530   1.16217   1.16465   1.17351
 Alpha virt. eigenvalues --    1.18430   1.19870   1.20284   1.22333   1.23171
 Alpha virt. eigenvalues --    1.24884   1.25282   1.25823   1.25959   1.26456
 Alpha virt. eigenvalues --    1.27291   1.27859   1.28475   1.28482   1.29534
 Alpha virt. eigenvalues --    1.31384   1.31905   1.32018   1.32432   1.33117
 Alpha virt. eigenvalues --    1.34484   1.34602   1.35015   1.35233   1.36009
 Alpha virt. eigenvalues --    1.36116   1.36449   1.36482   1.37227   1.37620
 Alpha virt. eigenvalues --    1.38414   1.38874   1.40181   1.41188   1.41649
 Alpha virt. eigenvalues --    1.42274   1.43089   1.43105   1.43368   1.43613
 Alpha virt. eigenvalues --    1.43614   1.44647   1.44923   1.46045   1.46297
 Alpha virt. eigenvalues --    1.46377   1.47252   1.47429   1.48268   1.49608
 Alpha virt. eigenvalues --    1.51163   1.51249   1.54966   1.55235   1.57287
 Alpha virt. eigenvalues --    1.58630   1.59720   1.61172   1.65158   1.65663
 Alpha virt. eigenvalues --    1.69763   1.69992   1.70524   1.71859   1.71868
 Alpha virt. eigenvalues --    1.72702   1.76782   1.78136   1.78297   1.79800
 Alpha virt. eigenvalues --    1.80046   1.82604   1.82930   1.84032   1.86037
 Alpha virt. eigenvalues --    1.86390   1.86406   1.87047   1.88622   1.89955
 Alpha virt. eigenvalues --    1.90225   1.90728   1.91689   1.92940   1.93044
 Alpha virt. eigenvalues --    1.93407   1.95350   1.95892   1.97364   1.98184
 Alpha virt. eigenvalues --    1.98732   2.00574   2.01343   2.01679   2.01954
 Alpha virt. eigenvalues --    2.02364   2.02643   2.03352   2.04103   2.04437
 Alpha virt. eigenvalues --    2.05256   2.06191   2.06318   2.09853   2.09878
 Alpha virt. eigenvalues --    2.12211   2.12662   2.13357   2.14330   2.16798
 Alpha virt. eigenvalues --    2.17692   2.19095   2.20471   2.21396   2.21787
 Alpha virt. eigenvalues --    2.22428   2.23936   2.23971   2.25507   2.26855
 Alpha virt. eigenvalues --    2.27718   2.29915   2.31691   2.31836   2.32150
 Alpha virt. eigenvalues --    2.34136   2.35716   2.36573   2.36859   2.39325
 Alpha virt. eigenvalues --    2.39499   2.39989   2.40629   2.44788   2.44958
 Alpha virt. eigenvalues --    2.45064   2.46750   2.46758   2.47810   2.48727
 Alpha virt. eigenvalues --    2.50056   2.50770   2.51425   2.53604   2.54071
 Alpha virt. eigenvalues --    2.54153   2.54894   2.55719   2.55754   2.55774
 Alpha virt. eigenvalues --    2.56572   2.57208   2.58548   2.60383   2.61652
 Alpha virt. eigenvalues --    2.62411   2.64896   2.65119   2.65750   2.65877
 Alpha virt. eigenvalues --    2.68393   2.68589   2.69238   2.70496   2.70822
 Alpha virt. eigenvalues --    2.71271   2.72816   2.73406   2.75649   2.75773
 Alpha virt. eigenvalues --    2.77443   2.79794   2.80197   2.80256   2.82776
 Alpha virt. eigenvalues --    2.85064   2.86136   2.87667   2.89032   2.90595
 Alpha virt. eigenvalues --    2.91878   2.92320   2.95417   2.96410   2.99074
 Alpha virt. eigenvalues --    3.01705   3.05370   3.07745   3.08624   3.10653
 Alpha virt. eigenvalues --    3.11810   3.12958   3.16130   3.16315   3.19620
 Alpha virt. eigenvalues --    3.22793   3.28527   3.28996   3.31232   3.35666
 Alpha virt. eigenvalues --    3.36087   3.36207   3.38097   3.38738   3.47717
 Alpha virt. eigenvalues --    3.51799   3.52268   3.52328   3.55139   3.59049
 Alpha virt. eigenvalues --    3.68839   3.69764   3.86608   3.86775   4.04459
 Alpha virt. eigenvalues --    4.04475   4.23429   4.25371   4.34192   4.35543
 Alpha virt. eigenvalues --    4.38212   4.39091   4.40183   4.40690   4.43660
 Alpha virt. eigenvalues --    4.44555   4.45031   4.45916   4.51402   4.53398
 Alpha virt. eigenvalues --    4.55926   4.58217   4.59603   4.64340   4.66077
 Alpha virt. eigenvalues --    4.69709   4.77866   4.85762   4.94372   4.95455
 Alpha virt. eigenvalues --    5.13067   5.20773
          Condensed to atoms (all electrons):
              1          2          3          4          5          6
     1  N    7.453288   0.443215  -0.060228  -0.148676  -0.396826  -0.007365
     2  C    0.443215   8.826839  -0.958395  -0.896125  -2.323443  -0.028537
     3  C   -0.060228  -0.958395   8.291265  -0.443425  -0.760232   0.792625
     4  C   -0.148676  -0.896125  -0.443425  10.856391   0.507705  -0.760235
     5  C   -0.396826  -2.323443  -0.760232   0.507705  10.856376  -0.443418
     6  C   -0.007365  -0.028537   0.792625  -0.760235  -0.443418   8.291262
     7  C    0.022121   0.874391  -0.028539  -2.323446  -0.896122  -0.958403
     8  N    0.000910   0.022120  -0.007365  -0.396827  -0.148679  -0.060226
     9  O   -0.074651   0.197489  -0.012933   0.013513   0.146711  -0.005403
    10  O   -0.004722  -0.014126  -0.005402   0.146712   0.013513  -0.012933
    11  H    0.000114   0.008078  -0.003173  -0.019265   0.057816  -0.014448
    12  H    0.300055  -0.001159  -0.014448   0.057817  -0.019264  -0.003173
    13  C    0.013442   0.020069  -0.119475   0.016394   0.589039  -1.149623
    14  C   -0.002639  -0.006496  -0.110312   0.230584   0.174779   0.074004
    15  C    0.001550  -0.049223   0.014465  -0.060556   0.114597   0.027867
    16  H    0.000000  -0.000272   0.000010  -0.000097   0.001511  -0.000273
    17  C    0.021910   0.072097  -0.045823   0.055466   0.212915  -0.974652
    18  H   -0.000003  -0.000896   0.000031  -0.000088  -0.000408  -0.003243
    19  C    0.077186  -0.205167   0.250025   0.114811  -2.132425   0.215739
    20  H    0.002862   0.041790   0.007683  -0.005480   0.023620  -0.051699
    21  C   -0.089815  -0.224182   0.028633   0.305947   0.165413   0.359465
    22  C    0.000204   0.035033   0.003109  -0.002628  -0.128806  -0.025507
    23  H    0.000000  -0.000012   0.000003  -0.000021   0.000028  -0.002217
    24  S   -0.000007  -0.009434  -0.000610   0.011959   0.007503   0.050343
    25  N   -0.001130   0.001565   0.018971  -0.084208   0.003756   0.068217
    26  C    0.050042   0.166118  -1.149633   0.589051   0.016393  -0.119477
    27  C    0.104850  -0.001628   0.074000   0.174788   0.230585  -0.110312
    28  C    0.006559  -0.036545   0.027867   0.114596  -0.060556   0.014464
    29  H    0.000018   0.000032  -0.000273   0.001511  -0.000097   0.000010
    30  C    0.103365   0.049831  -0.974667   0.212916   0.055466  -0.045823
    31  H    0.000014  -0.000004  -0.003243  -0.000408  -0.000088   0.000031
    32  C   -0.211951  -0.369082   0.215764  -2.132446   0.114811   0.250030
    33  H    0.002233   0.002139  -0.051699   0.023619  -0.005480   0.007683
    34  C   -0.112357  -0.375181   0.359466   0.165404   0.305945   0.028634
    35  C   -0.020726   0.060080  -0.025506  -0.128806  -0.002628   0.003109
    36  H   -0.000043  -0.000027  -0.002217   0.000028  -0.000021   0.000003
    37  S   -0.009030  -0.052462   0.050342   0.007503   0.011959  -0.000610
    38  N    0.033763   0.036443   0.068218   0.003756  -0.084206   0.018971
              7          8          9         10         11         12
     1  N    0.022121   0.000910  -0.074651  -0.004722   0.000114   0.300055
     2  C    0.874391   0.022120   0.197489  -0.014126   0.008078  -0.001159
     3  C   -0.028539  -0.007365  -0.012933  -0.005402  -0.003173  -0.014448
     4  C   -2.323446  -0.396827   0.013513   0.146712  -0.019265   0.057817
     5  C   -0.896122  -0.148679   0.146711   0.013513   0.057816  -0.019264
     6  C   -0.958403  -0.060226  -0.005403  -0.012933  -0.014448  -0.003173
     7  C    8.826844   0.443217  -0.014126   0.197488  -0.001158   0.008078
     8  N    0.443217   7.453287  -0.004722  -0.074652   0.300054   0.000114
     9  O   -0.014126  -0.004722   8.446009   0.000035   0.000024  -0.002374
    10  O    0.197488  -0.074652   0.000035   8.446010  -0.002374   0.000024
    11  H   -0.001158   0.300054   0.000024  -0.002374   0.342402   0.000000
    12  H    0.008078   0.000114  -0.002374   0.000024   0.000000   0.342402
    13  C    0.166119   0.050039   0.001246  -0.001047   0.032451   0.000458
    14  C   -0.001627   0.104848  -0.003090   0.000487   0.025375   0.000003
    15  C   -0.036546   0.006559  -0.007202   0.000103   0.001034  -0.000004
    16  H    0.000032   0.000018   0.000007   0.000000   0.000000   0.000000
    17  C    0.049832   0.103364  -0.087657   0.000804   0.000342   0.000555
    18  H   -0.000004   0.000014   0.000201   0.000000   0.000000   0.000000
    19  C   -0.369084  -0.211946  -0.174986  -0.002345  -0.035733   0.001664
    20  H    0.002139   0.002233   0.000043   0.000010   0.000005  -0.000002
    21  C   -0.375185  -0.112353   0.119922   0.018633  -0.078331  -0.001662
    22  C    0.060080  -0.020726  -0.000715  -0.000197   0.006554  -0.000001
    23  H   -0.000027  -0.000043   0.000000   0.000000   0.000000   0.000000
    24  S   -0.052462  -0.009030   0.000081  -0.000184  -0.006372   0.000001
    25  N    0.036444   0.033763   0.000489  -0.005573   0.030048  -0.000002
    26  C    0.020072   0.013443  -0.001047   0.001246   0.000458   0.032452
    27  C   -0.006494  -0.002639   0.000487  -0.003090   0.000003   0.025375
    28  C   -0.049223   0.001550   0.000103  -0.007202  -0.000004   0.001034
    29  H   -0.000272   0.000000   0.000000   0.000007   0.000000   0.000000
    30  C    0.072101   0.021911   0.000804  -0.087658   0.000555   0.000342
    31  H   -0.000896  -0.000003   0.000000   0.000201   0.000000   0.000000
    32  C   -0.205172   0.077185  -0.002345  -0.174987   0.001664  -0.035733
    33  H    0.041791   0.002862   0.000010   0.000043  -0.000002   0.000005
    34  C   -0.224180  -0.089815   0.018633   0.119923  -0.001662  -0.078332
    35  C    0.035033   0.000204  -0.000197  -0.000715  -0.000001   0.006554
    36  H   -0.000012   0.000000   0.000000   0.000000   0.000000   0.000000
    37  S   -0.009434  -0.000007  -0.000184   0.000081   0.000001  -0.006372
    38  N    0.001565  -0.001130  -0.005572   0.000489  -0.000002   0.030048
             13         14         15         16         17         18
     1  N    0.013442  -0.002639   0.001550   0.000000   0.021910  -0.000003
     2  C    0.020069  -0.006496  -0.049223  -0.000272   0.072097  -0.000896
     3  C   -0.119475  -0.110312   0.014465   0.000010  -0.045823   0.000031
     4  C    0.016394   0.230584  -0.060556  -0.000097   0.055466  -0.000088
     5  C    0.589039   0.174779   0.114597   0.001511   0.212915  -0.000408
     6  C   -1.149623   0.074004   0.027867  -0.000273  -0.974652  -0.003243
     7  C    0.166119  -0.001627  -0.036546   0.000032   0.049832  -0.000004
     8  N    0.050039   0.104848   0.006559   0.000018   0.103364   0.000014
     9  O    0.001246  -0.003090  -0.007202   0.000007  -0.087657   0.000201
    10  O   -0.001047   0.000487   0.000103   0.000000   0.000804   0.000000
    11  H    0.032451   0.025375   0.001034   0.000000   0.000342   0.000000
    12  H    0.000458   0.000003  -0.000004   0.000000   0.000555   0.000000
    13  C    8.865842  -1.868056   0.077017   0.040818  -0.893051   0.006507
    14  C   -1.868056  14.095823  -2.557205   0.022056   1.317962   0.014693
    15  C    0.077017  -2.557205   9.500475   0.311111   0.376817  -0.003282
    16  H    0.040818   0.022056   0.311111   0.543994  -0.059932  -0.003623
    17  C   -0.893051   1.317962   0.376817  -0.059932  10.526332   0.382892
    18  H    0.006507   0.014693  -0.003282  -0.003623   0.382892   0.533398
    19  C    1.112881  -2.397172  -1.377639   0.061070  -4.700306  -0.083809
    20  H    0.043380   0.012713  -0.005906  -0.000138   0.109555  -0.004450
    21  C   -0.256672  -2.063371   1.029139   0.033494  -0.271426   0.017105
    22  C   -0.162327  -2.415247  -0.687950  -0.096704   0.165610  -0.006359
    23  H    0.055504   0.110276  -0.045231   0.001310  -0.004706  -0.000003
    24  S   -0.092641   0.169548  -0.042007  -0.001282  -0.016132   0.000508
    25  N    0.174621   0.388528  -0.064002  -0.001205  -0.015552   0.000324
    26  C    0.035626   0.005814  -0.000436   0.000000   0.012840   0.000000
    27  C    0.005814   0.000895  -0.000106   0.000000   0.001871   0.000000
    28  C   -0.000436  -0.000106  -0.000010   0.000000  -0.000076   0.000000
    29  H    0.000000   0.000000   0.000000   0.000000   0.000000   0.000000
    30  C    0.012840   0.001871  -0.000076   0.000000   0.001113   0.000000
    31  H    0.000000   0.000000   0.000000   0.000000   0.000000   0.000000
    32  C   -0.057382  -0.003872   0.000006   0.000000  -0.009130   0.000002
    33  H    0.000552   0.000033   0.000004   0.000000  -0.000015   0.000000
    34  C   -0.042396  -0.000946   0.000590   0.000000  -0.022722  -0.000002
    35  C   -0.000560  -0.000030   0.000009   0.000000  -0.000041   0.000000
    36  H    0.000000   0.000000   0.000000   0.000000   0.000000   0.000000
    37  S    0.000225   0.000018  -0.000002   0.000000   0.000137   0.000000
    38  N   -0.000903  -0.000198   0.000035   0.000000   0.000276   0.000000
             19         20         21         22         23         24
     1  N    0.077186   0.002862  -0.089815   0.000204   0.000000  -0.000007
     2  C   -0.205167   0.041790  -0.224182   0.035033  -0.000012  -0.009434
     3  C    0.250025   0.007683   0.028633   0.003109   0.000003  -0.000610
     4  C    0.114811  -0.005480   0.305947  -0.002628  -0.000021   0.011959
     5  C   -2.132425   0.023620   0.165413  -0.128806   0.000028   0.007503
     6  C    0.215739  -0.051699   0.359465  -0.025507  -0.002217   0.050343
     7  C   -0.369084   0.002139  -0.375185   0.060080  -0.000027  -0.052462
     8  N   -0.211946   0.002233  -0.112353  -0.020726  -0.000043  -0.009030
     9  O   -0.174986   0.000043   0.119922  -0.000715   0.000000   0.000081
    10  O   -0.002345   0.000010   0.018633  -0.000197   0.000000  -0.000184
    11  H   -0.035733   0.000005  -0.078331   0.006554   0.000000  -0.006372
    12  H    0.001664  -0.000002  -0.001662  -0.000001   0.000000   0.000001
    13  C    1.112881   0.043380  -0.256672  -0.162327   0.055504  -0.092641
    14  C   -2.397172   0.012713  -2.063371  -2.415247   0.110276   0.169548
    15  C   -1.377639  -0.005906   1.029139  -0.687950  -0.045231  -0.042007
    16  H    0.061070  -0.000138   0.033494  -0.096704   0.001310  -0.001282
    17  C   -4.700306   0.109555  -0.271426   0.165610  -0.004706  -0.016132
    18  H   -0.083809  -0.004450   0.017105  -0.006359  -0.000003   0.000508
    19  C   18.125728   0.175587  -2.677561   0.780530  -0.000161  -0.026803
    20  H    0.175587   0.497949  -0.040328   0.001117   0.000000   0.000263
    21  C   -2.677561  -0.040328  10.639859  -0.669345   0.003213   0.018642
    22  C    0.780530   0.001117  -0.669345  10.130847   0.169797  -0.521128
    23  H   -0.000161   0.000000   0.003213   0.169797   0.491514   0.022780
    24  S   -0.026803   0.000263   0.018642  -0.521128   0.022780  15.768207
    25  N   -0.049008  -0.001870  -0.199346  -0.564839   0.011394   0.069212
    26  C   -0.057382   0.000552  -0.042397  -0.000560   0.000000   0.000225
    27  C   -0.003872   0.000033  -0.000946  -0.000030   0.000000   0.000018
    28  C    0.000006   0.000004   0.000590   0.000009   0.000000  -0.000002
    29  H    0.000000   0.000000   0.000000   0.000000   0.000000   0.000000
    30  C   -0.009130  -0.000015  -0.022722  -0.000041   0.000000   0.000137
    31  H    0.000002   0.000000  -0.000002   0.000000   0.000000   0.000000
    32  C    0.057184  -0.000972   0.161117   0.001153   0.000000   0.000105
    33  H   -0.000972   0.000000  -0.003749  -0.000007   0.000000   0.000007
    34  C    0.161116  -0.003749   0.042195   0.001115   0.000000  -0.000167
    35  C    0.001153  -0.000007   0.001115   0.000001   0.000000   0.000000
    36  H    0.000000   0.000000   0.000000   0.000000   0.000000   0.000000
    37  S    0.000105   0.000007  -0.000167   0.000000   0.000000   0.000001
    38  N    0.005712   0.000024  -0.004189   0.000009   0.000000  -0.000003
             25         26         27         28         29         30
     1  N   -0.001130   0.050042   0.104850   0.006559   0.000018   0.103365
     2  C    0.001565   0.166118  -0.001628  -0.036545   0.000032   0.049831
     3  C    0.018971  -1.149633   0.074000   0.027867  -0.000273  -0.974667
     4  C   -0.084208   0.589051   0.174788   0.114596   0.001511   0.212916
     5  C    0.003756   0.016393   0.230585  -0.060556  -0.000097   0.055466
     6  C    0.068217  -0.119477  -0.110312   0.014464   0.000010  -0.045823
     7  C    0.036444   0.020072  -0.006494  -0.049223  -0.000272   0.072101
     8  N    0.033763   0.013443  -0.002639   0.001550   0.000000   0.021911
     9  O    0.000489  -0.001047   0.000487   0.000103   0.000000   0.000804
    10  O   -0.005573   0.001246  -0.003090  -0.007202   0.000007  -0.087658
    11  H    0.030048   0.000458   0.000003  -0.000004   0.000000   0.000555
    12  H   -0.000002   0.032452   0.025375   0.001034   0.000000   0.000342
    13  C    0.174621   0.035626   0.005814  -0.000436   0.000000   0.012840
    14  C    0.388528   0.005814   0.000895  -0.000106   0.000000   0.001871
    15  C   -0.064002  -0.000436  -0.000106  -0.000010   0.000000  -0.000076
    16  H   -0.001205   0.000000   0.000000   0.000000   0.000000   0.000000
    17  C   -0.015552   0.012840   0.001871  -0.000076   0.000000   0.001113
    18  H    0.000324   0.000000   0.000000   0.000000   0.000000   0.000000
    19  C   -0.049008  -0.057382  -0.003872   0.000006   0.000000  -0.009130
    20  H   -0.001870   0.000552   0.000033   0.000004   0.000000  -0.000015
    21  C   -0.199346  -0.042397  -0.000946   0.000590   0.000000  -0.022722
    22  C   -0.564839  -0.000560  -0.000030   0.000009   0.000000  -0.000041
    23  H    0.011394   0.000000   0.000000   0.000000   0.000000   0.000000
    24  S    0.069212   0.000225   0.000018  -0.000002   0.000000   0.000137
    25  N    7.537974  -0.000903  -0.000198   0.000035   0.000000   0.000276
    26  C   -0.000903   8.865897  -1.868096   0.077008   0.040818  -0.893057
    27  C   -0.000198  -1.868096  14.095885  -2.557183   0.022056   1.317991
    28  C    0.000035   0.077008  -2.557183   9.500452   0.311112   0.376824
    29  H    0.000000   0.040818   0.022056   0.311112   0.543994  -0.059933
    30  C    0.000276  -0.893057   1.317991   0.376824  -0.059933  10.526393
    31  H    0.000000   0.006507   0.014693  -0.003283  -0.003623   0.382894
    32  C    0.005713   1.112880  -2.397248  -1.377633   0.061070  -4.700399
    33  H    0.000024   0.043380   0.012714  -0.005907  -0.000138   0.109556
    34  C   -0.004189  -0.256679  -2.063384   1.029129   0.033493  -0.271413
    35  C    0.000009  -0.162310  -2.415269  -0.687942  -0.096704   0.165604
    36  H    0.000000   0.055504   0.110276  -0.045232   0.001310  -0.004706
    37  S   -0.000003  -0.092643   0.169553  -0.042008  -0.001282  -0.016131
    38  N    0.000012   0.174617   0.388537  -0.064002  -0.001205  -0.015551
             31         32         33         34         35         36
     1  N    0.000014  -0.211951   0.002233  -0.112357  -0.020726  -0.000043
     2  C   -0.000004  -0.369082   0.002139  -0.375181   0.060080  -0.000027
     3  C   -0.003243   0.215764  -0.051699   0.359466  -0.025506  -0.002217
     4  C   -0.000408  -2.132446   0.023619   0.165404  -0.128806   0.000028
     5  C   -0.000088   0.114811  -0.005480   0.305945  -0.002628  -0.000021
     6  C    0.000031   0.250030   0.007683   0.028634   0.003109   0.000003
     7  C   -0.000896  -0.205172   0.041791  -0.224180   0.035033  -0.000012
     8  N   -0.000003   0.077185   0.002862  -0.089815   0.000204   0.000000
     9  O    0.000000  -0.002345   0.000010   0.018633  -0.000197   0.000000
    10  O    0.000201  -0.174987   0.000043   0.119923  -0.000715   0.000000
    11  H    0.000000   0.001664  -0.000002  -0.001662  -0.000001   0.000000
    12  H    0.000000  -0.035733   0.000005  -0.078332   0.006554   0.000000
    13  C    0.000000  -0.057382   0.000552  -0.042396  -0.000560   0.000000
    14  C    0.000000  -0.003872   0.000033  -0.000946  -0.000030   0.000000
    15  C    0.000000   0.000006   0.000004   0.000590   0.000009   0.000000
    16  H    0.000000   0.000000   0.000000   0.000000   0.000000   0.000000
    17  C    0.000000  -0.009130  -0.000015  -0.022722  -0.000041   0.000000
    18  H    0.000000   0.000002   0.000000  -0.000002   0.000000   0.000000
    19  C    0.000002   0.057184  -0.000972   0.161116   0.001153   0.000000
    20  H    0.000000  -0.000972   0.000000  -0.003749  -0.000007   0.000000
    21  C   -0.000002   0.161117  -0.003749   0.042195   0.001115   0.000000
    22  C    0.000000   0.001153  -0.000007   0.001115   0.000001   0.000000
    23  H    0.000000   0.000000   0.000000   0.000000   0.000000   0.000000
    24  S    0.000000   0.000105   0.000007  -0.000167   0.000000   0.000000
    25  N    0.000000   0.005713   0.000024  -0.004189   0.000009   0.000000
    26  C    0.006507   1.112880   0.043380  -0.256679  -0.162310   0.055504
    27  C    0.014693  -2.397248   0.012714  -2.063384  -2.415269   0.110276
    28  C   -0.003283  -1.377633  -0.005907   1.029129  -0.687942  -0.045232
    29  H   -0.003623   0.061070  -0.000138   0.033493  -0.096704   0.001310
    30  C    0.382894  -4.700399   0.109556  -0.271413   0.165604  -0.004706
    31  H    0.533398  -0.083810  -0.004450   0.017105  -0.006359  -0.000003
    32  C   -0.083810  18.125923   0.175584  -2.677579   0.780534  -0.000161
    33  H   -0.004450   0.175584   0.497949  -0.040326   0.001118   0.000000
    34  C    0.017105  -2.677579  -0.040326  10.639895  -0.669335   0.003213
    35  C   -0.006359   0.780534   0.001118  -0.669335  10.130840   0.169798
    36  H   -0.000003  -0.000161   0.000000   0.003213   0.169798   0.491514
    37  S    0.000508  -0.026805   0.000263   0.018641  -0.521128   0.022780
    38  N    0.000324  -0.049010  -0.001870  -0.199350  -0.564842   0.011394
             37         38
     1  N   -0.009030   0.033763
     2  C   -0.052462   0.036443
     3  C    0.050342   0.068218
     4  C    0.007503   0.003756
     5  C    0.011959  -0.084206
     6  C   -0.000610   0.018971
     7  C   -0.009434   0.001565
     8  N   -0.000007  -0.001130
     9  O   -0.000184  -0.005572
    10  O    0.000081   0.000489
    11  H    0.000001  -0.000002
    12  H   -0.006372   0.030048
    13  C    0.000225  -0.000903
    14  C    0.000018  -0.000198
    15  C   -0.000002   0.000035
    16  H    0.000000   0.000000
    17  C    0.000137   0.000276
    18  H    0.000000   0.000000
    19  C    0.000105   0.005712
    20  H    0.000007   0.000024
    21  C   -0.000167  -0.004189
    22  C    0.000000   0.000009
    23  H    0.000000   0.000000
    24  S    0.000001  -0.000003
    25  N   -0.000003   0.000012
    26  C   -0.092643   0.174617
    27  C    0.169553   0.388537
    28  C   -0.042008  -0.064002
    29  H   -0.001282  -0.001205
    30  C   -0.016131  -0.015551
    31  H    0.000508   0.000324
    32  C   -0.026805  -0.049010
    33  H    0.000263  -0.001870
    34  C    0.018641  -0.199350
    35  C   -0.521128  -0.564842
    36  H    0.022780   0.011394
    37  S   15.768208   0.069212
    38  N    0.069212   7.537976
 Mulliken atomic charges:
              1
     1  N   -0.497533
     2  C    0.695066
     3  C    0.575122
     4  C   -0.207734
     5  C   -0.207739
     6  C    0.575121
     7  C    0.695067
     8  N   -0.497533
     9  O   -0.548602
    10  O   -0.548603
    11  H    0.355549
    12  H    0.355548
    13  C   -0.676316
    14  C    0.680060
    15  C   -0.523992
    16  H    0.148099
    17  C   -0.311469
    18  H    0.150496
    19  C   -0.624995
    20  H    0.193048
    21  C    0.189268
    22  C   -0.052051
    23  H    0.186604
    24  S    0.658728
    25  N   -0.389345
    26  C   -0.676321
    27  C    0.680074
    28  C   -0.523990
    29  H    0.148099
    30  C   -0.311466
    31  H    0.150496
    32  C   -0.625006
    33  H    0.193048
    34  C    0.189266
    35  C   -0.052053
    36  H    0.186604
    37  S    0.658728
    38  N   -0.389345
 Sum of Mulliken atomic charges =   0.00000
 Mulliken charges with hydrogens summed into heavy atoms:
              1
     1  N   -0.141985
     2  C    0.695066
     3  C    0.575122
     4  C   -0.207734
     5  C   -0.207739
     6  C    0.575121
     7  C    0.695067
     8  N   -0.141984
     9  O   -0.548602
    10  O   -0.548603
    13  C   -0.676316
    14  C    0.680060
    15  C   -0.375894
    17  C   -0.160973
    19  C   -0.431947
    21  C    0.189268
    22  C    0.134553
    24  S    0.658728
    25  N   -0.389345
    26  C   -0.676321
    27  C    0.680074
    28  C   -0.375891
    30  C   -0.160969
    32  C   -0.431958
    34  C    0.189266
    35  C    0.134550
    37  S    0.658728
    38  N   -0.389345
 Sum of Mulliken charges with hydrogens summed into heavy atoms =   0.00000
 Electronic spatial extent (au):  <R**2>=          15774.7026
 Charge=              0.0000 electrons
 Dipole moment (field-independent basis, Debye):
    X=              0.0000    Y=              0.0000    Z=              0.0000  Tot=              0.0000
 Quadrupole moment (field-independent basis, Debye-Ang):
   XX=            -84.0740   YY=           -185.1834   ZZ=           -179.0931
   XY=             -9.6422   XZ=              0.0000   YZ=             -0.0001
 Traceless Quadrupole moment (field-independent basis, Debye-Ang):
   XX=             65.3762   YY=            -35.7332   ZZ=            -29.6430
   XY=             -9.6422   XZ=              0.0000   YZ=             -0.0001
 Octapole moment (field-independent basis, Debye-Ang**2):
  XXX=             -0.0007  YYY=             -0.0001  ZZZ=             -0.0001  XYY=              0.0000
  XXY=             -0.0005  XXZ=             -0.0019  XZZ=              0.0000  YZZ=              0.0000
  YYZ=              0.0001  XYZ=              0.0001
 Hexadecapole moment (field-independent basis, Debye-Ang**3):
 XXXX=         -13476.2703 YYYY=          -3253.4895 ZZZZ=           -207.6133 XXXY=           -134.2685
 XXXZ=              0.0016 YYYX=            -81.5089 YYYZ=             -0.0006 ZZZX=              0.0000
 ZZZY=              0.0000 XXYY=          -3283.7524 XXZZ=          -3343.8757 YYZZ=           -589.1390
 XXYZ=             -0.0001 YYXZ=             -0.0002 ZZXY=             61.1845
 N-N= 2.617233144173D+03 E-N=-9.768356418640D+03  KE= 1.920259473734D+03
 1\1\GINC-DLT13\SP\RTD-CAM-B3LYP-FC\6-31+G(d,p)\C20H10N4O2S2\NATHALIA.R
 OSA\30-Aug-2023\0\\# td=(nstates=10) cam-b3lyp/6-31+g(d,p) geom=connec
 tivity\\Energy:\\0,1\N,0,1.617241,1.376424,0.00001\C,0,0.266822,1.7945
 23,0.000009\C,0,1.757338,-0.002189,0.000014\C,0,0.470564,-0.536632,0.0
 00028\C,0,-0.470565,0.536637,0.000028\C,0,-1.757338,0.002194,0.000008\
 C,0,-0.266823,-1.794518,0.000001\N,0,-1.617241,-1.37642,-0.000007\O,0,
 -0.087738,2.973176,0.000007\O,0,0.087737,-2.973171,0.\H,0,-2.410373,-2
 .009781,0.000003\H,0,2.41037,2.009788,0.000009\C,0,-4.297267,-0.074664
 ,-0.000002\C,0,-5.556836,0.645065,-0.000008\C,0,-5.574084,2.070593,-0.
 000007\H,0,-6.519319,2.604337,-0.00001\C,0,-4.374499,2.740374,-0.00000
 2\H,0,-4.358826,3.825707,-0.000002\C,0,-3.131977,2.048662,0.000003\H,0
 ,-2.212103,2.628468,0.000008\C,0,-3.050289,0.660419,0.000003\C,0,-6.61
 3246,-0.258637,-0.000012\H,0,-7.674917,-0.049367,-0.000021\S,0,-5.9968
 27,-1.845974,-0.000007\N,0,-4.393093,-1.410557,-0.000001\C,0,4.297268,
 0.074664,-0.000002\C,0,5.556835,-0.645069,-0.000008\C,0,5.57408,-2.070
 597,-0.000007\H,0,6.519313,-2.604343,-0.000014\C,0,4.374493,-2.740375,
 0.000003\H,0,4.358817,-3.825707,0.000004\C,0,3.131973,-2.048659,0.0000
 1\H,0,2.212097,-2.628464,0.000016\C,0,3.050288,-0.660416,0.000007\C,0,
 6.613248,0.25863,-0.000014\H,0,7.674918,0.049357,-0.000015\S,0,5.99683
 3,1.845969,-0.000013\N,0,4.393098,1.410556,-0.000003\\Version=EM64L-G0
 9RevA.02\State=1-A\HF=-1933.4594226\RMSD=6.803e-09\PG=C01 [X(C20H10N4O
 2S2)]\\@


 REPARTEE - WHAT YOU THINK OF AFTER YOU BECOME A DEPARTEE.
 Job cpu time:  0 days  4 hours  7 minutes 42.2 seconds.
 File lengths (MBytes):  RWF=    771 Int=      0 D2E=      0 Chk=    123 Scr=      1
 Normal termination of Gaussian 09 at Wed Aug 30 21:17:55 2023.
