 Entering Link 1 = C:\G09W\l1.exe PID=     21488.
  
 Copyright (c) 1988,1990,1992,1993,1995,1998,2003,2009,2010,
            Gaussian, Inc.  All Rights Reserved.
  
 This is part of the Gaussian(R) 09 program.  It is based on
 the Gaussian(R) 03 system (copyright 2003, Gaussian, Inc.),
 the Gaussian(R) 98 system (copyright 1998, Gaussian, Inc.),
 the Gaussian(R) 94 system (copyright 1995, Gaussian, Inc.),
 the Gaussian 92(TM) system (copyright 1992, Gaussian, Inc.),
 the Gaussian 90(TM) system (copyright 1990, Gaussian, Inc.),
 the Gaussian 88(TM) system (copyright 1988, Gaussian, Inc.),
 the Gaussian 86(TM) system (copyright 1986, Carnegie Mellon
 University), and the Gaussian 82(TM) system (copyright 1983,
 Carnegie Mellon University). Gaussian is a federally registered
 trademark of Gaussian, Inc.
  
 This software contains proprietary and confidential information,
 including trade secrets, belonging to Gaussian, Inc.
  
 This software is provided under written license and may be
 used, copied, transmitted, or stored only in accord with that
 written license.
  
 The following legend is applicable only to US Government
 contracts under FAR:
  
                    RESTRICTED RIGHTS LEGEND
  
 Use, reproduction and disclosure by the US Government is
 subject to restrictions as set forth in subparagraphs (a)
 and (c) of the Commercial Computer Software - Restricted
 Rights clause in FAR 52.227-19.
  
 Gaussian, Inc.
 340 Quinnipiac St., Bldg. 40, Wallingford CT 06492
  
  
 ---------------------------------------------------------------
 Warning -- This program may not be used in any manner that
 competes with the business of Gaussian, Inc. or will provide
 assistance to any competitor of Gaussian, Inc.  The licensee
 of this program is prohibited from giving any competitor of
 Gaussian, Inc. access to this program.  By using this program,
 the user acknowledges that Gaussian, Inc. is engaged in the
 business of creating and licensing software in the field of
 computational chemistry and represents and warrants to the
 licensee that it is not a competitor of Gaussian, Inc. and that
 it will not use this program in any manner prohibited above.
 ---------------------------------------------------------------
  

 Cite this work as:
 Gaussian 09, Revision B.01,
 M. J. Frisch, G. W. Trucks, H. B. Schlegel, G. E. Scuseria, 
 M. A. Robb, J. R. Cheeseman, G. Scalmani, V. Barone, B. Mennucci, 
 G. A. Petersson, H. Nakatsuji, M. Caricato, X. Li, H. P. Hratchian, 
 A. F. Izmaylov, J. Bloino, G. Zheng, J. L. Sonnenberg, M. Hada, 
 M. Ehara, K. Toyota, R. Fukuda, J. Hasegawa, M. Ishida, T. Nakajima, 
 Y. Honda, O. Kitao, H. Nakai, T. Vreven, J. A. Montgomery, Jr., 
 J. E. Peralta, F. Ogliaro, M. Bearpark, J. J. Heyd, E. Brothers, 
 K. N. Kudin, V. N. Staroverov, T. Keith, R. Kobayashi, J. Normand, 
 K. Raghavachari, A. Rendell, J. C. Burant, S. S. Iyengar, J. Tomasi, 
 M. Cossi, N. Rega, J. M. Millam, M. Klene, J. E. Knox, J. B. Cross, 
 V. Bakken, C. Adamo, J. Jaramillo, R. Gomperts, R. E. Stratmann, 
 O. Yazyev, A. J. Austin, R. Cammi, C. Pomelli, J. W. Ochterski, 
 R. L. Martin, K. Morokuma, V. G. Zakrzewski, G. A. Voth, 
 P. Salvador, J. J. Dannenberg, S. Dapprich, A. D. Daniels, 
 O. Farkas, J. B. Foresman, J. V. Ortiz, J. Cioslowski, 
 and D. J. Fox, Gaussian, Inc., Wallingford CT, 2010.
 
 ******************************************
 Gaussian 09:  IA32W-G09RevB.01 12-Aug-2010
                06-Oct-2023 
 ******************************************
 %nprocshared=6
 Will use up to    6 processors via shared memory.
 %chk=G:\Meu Drive\POS-DOC-IME\SUBSTITUINTES-DOADORES\DPP-substituido\DPP-SUB-8\D
 PP-SUB-8-ANION.chk
 ----------------------------------------------------
 # opt=tight freq b3lyp/6-31+g(d,p) geom=connectivity
 ----------------------------------------------------
 1/7=10,14=-1,18=20,19=15,26=3,38=1,57=2/1,3;
 2/9=110,12=2,17=6,18=5,40=1/2;
 3/5=1,6=6,7=111,11=2,16=1,25=1,30=1,71=1,74=-5/1,2,3;
 4//1;
 5/5=2,38=5/2;
 6/7=2,8=2,9=2,10=2,28=1/1;
 7//1,2,3,16;
 1/7=10,14=-1,18=20,19=15/3(2);
 2/9=110/2;
 99//99;
 2/9=110/2;
 3/5=1,6=6,7=111,11=2,16=1,25=1,30=1,71=1,74=-5/1,2,3;
 4/5=5,16=3/1;
 5/5=2,38=5/2;
 7//1,2,3,16;
 1/7=10,14=-1,18=20,19=15/3(-5);
 2/9=110/2;
 6/7=2,8=2,9=2,10=2,19=2,28=1/1;
 99/9=1/99;
 -------
 Energy:
 -------
 Symbolic Z-matrix:
 Charge = -1 Multiplicity = 2
 N                     1.57277   1.42665   0.00015 
 C                     0.21161   1.80416   0.00028 
 C                     1.75511   0.0528   -0.00004 
 C                     0.48872  -0.52241  -0.00003 
 C                    -0.48872   0.52241   0.00016 
 C                    -1.75511  -0.0528    0.00011 
 C                    -0.21161  -1.80416  -0.0002 
 N                    -1.57278  -1.42665  -0.00013 
 O                    -0.17559   2.97158   0.00044 
 O                     0.17558  -2.97158  -0.0004 
 H                    -2.34793  -2.08224  -0.00016 
 H                     2.34792   2.08225   0.00017 
 C                    -4.27762  -0.19449   0.00018 
 C                    -5.52795   0.46923   0.00032 
 C                    -5.62777   1.86339   0.0005 
 H                    -6.5926    2.35977   0.00061 
 C                    -4.44189   2.59563   0.00057 
 H                    -4.48341   3.68029   0.00071 
 C                    -3.1913    1.96481   0.00044 
 H                    -2.28881   2.56979   0.0005 
 C                    -3.07331   0.56369   0.00024 
 N                    -4.36056  -1.58109  -0.00001 
 C                     5.52795  -0.46924  -0.00036 
 C                     4.27762   0.19449  -0.0002 
 C                     3.07332  -0.56369  -0.00021 
 C                     3.1913   -1.96481  -0.00039 
 H                     2.28881  -2.56979  -0.00041 
 C                     4.44189  -2.59563  -0.00055 
 H                     4.4834   -3.68029  -0.00068 
 C                     5.62777  -1.86339  -0.00053 
 H                     6.5926   -2.35977  -0.00066 
 N                     4.36056   1.58109  -0.00003 
 C                     5.59476   1.97694  -0.00006 
 H                     5.88842   3.02034   0.00005 
 C                    -5.59476  -1.97694  -0.00001 
 H                    -5.88841  -3.02034  -0.00014 
 S                     6.81651   0.71957  -0.0003 
 S                    -6.8165   -0.71957   0.0002 
 

 GradGradGradGradGradGradGradGradGradGradGradGradGradGradGradGradGradGrad
 Berny optimization.
 Initialization pass.
                           ----------------------------
                           !    Initial Parameters    !
                           ! (Angstroms and Degrees)  !
 --------------------------                            --------------------------
 ! Name  Definition              Value          Derivative Info.                !
 --------------------------------------------------------------------------------
 ! R1    R(1,2)                  1.4125         estimate D2E/DX2                !
 ! R2    R(1,3)                  1.3859         estimate D2E/DX2                !
 ! R3    R(1,12)                 1.0152         estimate D2E/DX2                !
 ! R4    R(2,5)                  1.4606         estimate D2E/DX2                !
 ! R5    R(2,9)                  1.23           estimate D2E/DX2                !
 ! R6    R(3,4)                  1.3909         estimate D2E/DX2                !
 ! R7    R(3,25)                 1.4552         estimate D2E/DX2                !
 ! R8    R(4,5)                  1.4307         estimate D2E/DX2                !
 ! R9    R(4,7)                  1.4606         estimate D2E/DX2                !
 ! R10   R(5,6)                  1.3909         estimate D2E/DX2                !
 ! R11   R(6,8)                  1.3859         estimate D2E/DX2                !
 ! R12   R(6,21)                 1.4552         estimate D2E/DX2                !
 ! R13   R(7,8)                  1.4125         estimate D2E/DX2                !
 ! R14   R(7,10)                 1.23           estimate D2E/DX2                !
 ! R15   R(8,11)                 1.0152         estimate D2E/DX2                !
 ! R16   R(9,20)                 2.1511         estimate D2E/DX2                !
 ! R17   R(10,27)                2.1511         estimate D2E/DX2                !
 ! R18   R(11,22)                2.0741         estimate D2E/DX2                !
 ! R19   R(12,32)                2.0741         estimate D2E/DX2                !
 ! R20   R(13,14)                1.4156         estimate D2E/DX2                !
 ! R21   R(13,21)                1.4231         estimate D2E/DX2                !
 ! R22   R(13,22)                1.3891         estimate D2E/DX2                !
 ! R23   R(14,15)                1.3977         estimate D2E/DX2                !
 ! R24   R(14,38)                1.7532         estimate D2E/DX2                !
 ! R25   R(15,16)                1.085          estimate D2E/DX2                !
 ! R26   R(15,17)                1.3937         estimate D2E/DX2                !
 ! R27   R(17,18)                1.0855         estimate D2E/DX2                !
 ! R28   R(17,19)                1.4007         estimate D2E/DX2                !
 ! R29   R(19,20)                1.0865         estimate D2E/DX2                !
 ! R30   R(19,21)                1.4061         estimate D2E/DX2                !
 ! R31   R(22,35)                1.2961         estimate D2E/DX2                !
 ! R32   R(23,24)                1.4156         estimate D2E/DX2                !
 ! R33   R(23,30)                1.3977         estimate D2E/DX2                !
 ! R34   R(23,37)                1.7532         estimate D2E/DX2                !
 ! R35   R(24,25)                1.4231         estimate D2E/DX2                !
 ! R36   R(24,32)                1.3891         estimate D2E/DX2                !
 ! R37   R(25,26)                1.4061         estimate D2E/DX2                !
 ! R38   R(26,27)                1.0865         estimate D2E/DX2                !
 ! R39   R(26,28)                1.4007         estimate D2E/DX2                !
 ! R40   R(28,29)                1.0855         estimate D2E/DX2                !
 ! R41   R(28,30)                1.3937         estimate D2E/DX2                !
 ! R42   R(30,31)                1.085          estimate D2E/DX2                !
 ! R43   R(32,33)                1.2961         estimate D2E/DX2                !
 ! R44   R(33,34)                1.0839         estimate D2E/DX2                !
 ! R45   R(33,37)                1.7532         estimate D2E/DX2                !
 ! R46   R(35,36)                1.0839         estimate D2E/DX2                !
 ! R47   R(35,38)                1.7532         estimate D2E/DX2                !
 ! A1    A(2,1,3)              113.0609         estimate D2E/DX2                !
 ! A2    A(2,1,12)             124.2754         estimate D2E/DX2                !
 ! A3    A(3,1,12)             122.6637         estimate D2E/DX2                !
 ! A4    A(1,2,5)              103.1505         estimate D2E/DX2                !
 ! A5    A(1,2,9)              123.8498         estimate D2E/DX2                !
 ! A6    A(5,2,9)              132.9996         estimate D2E/DX2                !
 ! A7    A(1,3,4)              106.8681         estimate D2E/DX2                !
 ! A8    A(1,3,25)             122.6243         estimate D2E/DX2                !
 ! A9    A(4,3,25)             130.5076         estimate D2E/DX2                !
 ! A10   A(3,4,5)              108.6633         estimate D2E/DX2                !
 ! A11   A(3,4,7)              143.0797         estimate D2E/DX2                !
 ! A12   A(5,4,7)              108.257          estimate D2E/DX2                !
 ! A13   A(2,5,4)              108.2571         estimate D2E/DX2                !
 ! A14   A(2,5,6)              143.0795         estimate D2E/DX2                !
 ! A15   A(4,5,6)              108.6634         estimate D2E/DX2                !
 ! A16   A(5,6,8)              106.8682         estimate D2E/DX2                !
 ! A17   A(5,6,21)             130.5077         estimate D2E/DX2                !
 ! A18   A(8,6,21)             122.6242         estimate D2E/DX2                !
 ! A19   A(4,7,8)              103.1506         estimate D2E/DX2                !
 ! A20   A(4,7,10)             132.9996         estimate D2E/DX2                !
 ! A21   A(8,7,10)             123.8498         estimate D2E/DX2                !
 ! A22   A(6,8,7)              113.0609         estimate D2E/DX2                !
 ! A23   A(6,8,11)             122.6636         estimate D2E/DX2                !
 ! A24   A(7,8,11)             124.2755         estimate D2E/DX2                !
 ! A25   A(14,13,21)           119.846          estimate D2E/DX2                !
 ! A26   A(14,13,22)           114.5382         estimate D2E/DX2                !
 ! A27   A(21,13,22)           125.6158         estimate D2E/DX2                !
 ! A28   A(13,14,15)           122.0565         estimate D2E/DX2                !
 ! A29   A(13,14,38)           109.3446         estimate D2E/DX2                !
 ! A30   A(15,14,38)           128.599          estimate D2E/DX2                !
 ! A31   A(14,15,16)           121.3199         estimate D2E/DX2                !
 ! A32   A(14,15,17)           117.5987         estimate D2E/DX2                !
 ! A33   A(16,15,17)           121.0813         estimate D2E/DX2                !
 ! A34   A(15,17,18)           119.502          estimate D2E/DX2                !
 ! A35   A(15,17,19)           121.5387         estimate D2E/DX2                !
 ! A36   A(18,17,19)           118.9594         estimate D2E/DX2                !
 ! A37   A(17,19,20)           119.3971         estimate D2E/DX2                !
 ! A38   A(17,19,21)           121.5809         estimate D2E/DX2                !
 ! A39   A(20,19,21)           119.022          estimate D2E/DX2                !
 ! A40   A(6,21,13)            122.7429         estimate D2E/DX2                !
 ! A41   A(6,21,19)            119.8779         estimate D2E/DX2                !
 ! A42   A(13,21,19)           117.3792         estimate D2E/DX2                !
 ! A43   A(13,22,35)           111.2058         estimate D2E/DX2                !
 ! A44   A(24,23,30)           122.0564         estimate D2E/DX2                !
 ! A45   A(24,23,37)           109.3446         estimate D2E/DX2                !
 ! A46   A(30,23,37)           128.599          estimate D2E/DX2                !
 ! A47   A(23,24,25)           119.846          estimate D2E/DX2                !
 ! A48   A(23,24,32)           114.5382         estimate D2E/DX2                !
 ! A49   A(25,24,32)           125.6159         estimate D2E/DX2                !
 ! A50   A(3,25,24)            122.7429         estimate D2E/DX2                !
 ! A51   A(3,25,26)            119.8779         estimate D2E/DX2                !
 ! A52   A(24,25,26)           117.3792         estimate D2E/DX2                !
 ! A53   A(25,26,27)           119.022          estimate D2E/DX2                !
 ! A54   A(25,26,28)           121.5809         estimate D2E/DX2                !
 ! A55   A(27,26,28)           119.3971         estimate D2E/DX2                !
 ! A56   A(26,28,29)           118.9593         estimate D2E/DX2                !
 ! A57   A(26,28,30)           121.5387         estimate D2E/DX2                !
 ! A58   A(29,28,30)           119.502          estimate D2E/DX2                !
 ! A59   A(23,30,28)           117.5988         estimate D2E/DX2                !
 ! A60   A(23,30,31)           121.3199         estimate D2E/DX2                !
 ! A61   A(28,30,31)           121.0813         estimate D2E/DX2                !
 ! A62   A(24,32,33)           111.2059         estimate D2E/DX2                !
 ! A63   A(32,33,34)           123.5013         estimate D2E/DX2                !
 ! A64   A(32,33,37)           116.3939         estimate D2E/DX2                !
 ! A65   A(34,33,37)           120.1047         estimate D2E/DX2                !
 ! A66   A(22,35,36)           123.5012         estimate D2E/DX2                !
 ! A67   A(22,35,38)           116.394          estimate D2E/DX2                !
 ! A68   A(36,35,38)           120.1048         estimate D2E/DX2                !
 ! A69   A(23,37,33)            88.5174         estimate D2E/DX2                !
 ! A70   A(14,38,35)            88.5174         estimate D2E/DX2                !
 ! D1    D(3,1,2,5)              0.0003         estimate D2E/DX2                !
 ! D2    D(3,1,2,9)           -179.9986         estimate D2E/DX2                !
 ! D3    D(12,1,2,5)           179.9982         estimate D2E/DX2                !
 ! D4    D(12,1,2,9)            -0.0006         estimate D2E/DX2                !
 ! D5    D(2,1,3,4)             -0.0007         estimate D2E/DX2                !
 ! D6    D(2,1,3,25)           179.9995         estimate D2E/DX2                !
 ! D7    D(12,1,3,4)          -179.9987         estimate D2E/DX2                !
 ! D8    D(12,1,3,25)            0.0015         estimate D2E/DX2                !
 ! D9    D(1,2,5,4)              0.0002         estimate D2E/DX2                !
 ! D10   D(1,2,5,6)           -179.9965         estimate D2E/DX2                !
 ! D11   D(9,2,5,4)            179.9989         estimate D2E/DX2                !
 ! D12   D(9,2,5,6)              0.0022         estimate D2E/DX2                !
 ! D13   D(1,3,4,5)              0.0008         estimate D2E/DX2                !
 ! D14   D(1,3,4,7)            179.9971         estimate D2E/DX2                !
 ! D15   D(25,3,4,5)          -179.9994         estimate D2E/DX2                !
 ! D16   D(25,3,4,7)            -0.0032         estimate D2E/DX2                !
 ! D17   D(1,3,25,24)           -0.0004         estimate D2E/DX2                !
 ! D18   D(1,3,25,26)          179.9991         estimate D2E/DX2                !
 ! D19   D(4,3,25,24)          180.0            estimate D2E/DX2                !
 ! D20   D(4,3,25,26)           -0.0005         estimate D2E/DX2                !
 ! D21   D(3,4,5,2)             -0.0007         estimate D2E/DX2                !
 ! D22   D(3,4,5,6)            179.9973         estimate D2E/DX2                !
 ! D23   D(7,4,5,2)           -179.9983         estimate D2E/DX2                !
 ! D24   D(7,4,5,6)             -0.0004         estimate D2E/DX2                !
 ! D25   D(3,4,7,8)           -179.9949         estimate D2E/DX2                !
 ! D26   D(3,4,7,10)             0.003          estimate D2E/DX2                !
 ! D27   D(5,4,7,8)              0.0014         estimate D2E/DX2                !
 ! D28   D(5,4,7,10)           179.9993         estimate D2E/DX2                !
 ! D29   D(2,5,6,8)            179.9959         estimate D2E/DX2                !
 ! D30   D(2,5,6,21)            -0.0035         estimate D2E/DX2                !
 ! D31   D(4,5,6,8)             -0.0008         estimate D2E/DX2                !
 ! D32   D(4,5,6,21)           179.9998         estimate D2E/DX2                !
 ! D33   D(5,6,8,7)              0.0018         estimate D2E/DX2                !
 ! D34   D(5,6,8,11)           179.9967         estimate D2E/DX2                !
 ! D35   D(21,6,8,7)          -179.9988         estimate D2E/DX2                !
 ! D36   D(21,6,8,11)           -0.0038         estimate D2E/DX2                !
 ! D37   D(5,6,21,13)         -179.999          estimate D2E/DX2                !
 ! D38   D(5,6,21,19)            0.0013         estimate D2E/DX2                !
 ! D39   D(8,6,21,13)            0.0017         estimate D2E/DX2                !
 ! D40   D(8,6,21,19)         -179.998          estimate D2E/DX2                !
 ! D41   D(4,7,8,6)             -0.002          estimate D2E/DX2                !
 ! D42   D(4,7,8,11)          -179.9968         estimate D2E/DX2                !
 ! D43   D(10,7,8,6)           179.9999         estimate D2E/DX2                !
 ! D44   D(10,7,8,11)            0.005          estimate D2E/DX2                !
 ! D45   D(21,13,14,15)          0.0001         estimate D2E/DX2                !
 ! D46   D(21,13,14,38)        179.9999         estimate D2E/DX2                !
 ! D47   D(22,13,14,15)       -179.9996         estimate D2E/DX2                !
 ! D48   D(22,13,14,38)          0.0003         estimate D2E/DX2                !
 ! D49   D(14,13,21,6)        -179.9995         estimate D2E/DX2                !
 ! D50   D(14,13,21,19)          0.0002         estimate D2E/DX2                !
 ! D51   D(22,13,21,6)           0.0001         estimate D2E/DX2                !
 ! D52   D(22,13,21,19)        179.9998         estimate D2E/DX2                !
 ! D53   D(14,13,22,35)         -0.0008         estimate D2E/DX2                !
 ! D54   D(21,13,22,35)        179.9996         estimate D2E/DX2                !
 ! D55   D(13,14,15,16)       -179.9996         estimate D2E/DX2                !
 ! D56   D(13,14,15,17)         -0.0004         estimate D2E/DX2                !
 ! D57   D(38,14,15,16)          0.0006         estimate D2E/DX2                !
 ! D58   D(38,14,15,17)        179.9998         estimate D2E/DX2                !
 ! D59   D(13,14,38,35)          0.0002         estimate D2E/DX2                !
 ! D60   D(15,14,38,35)       -179.9999         estimate D2E/DX2                !
 ! D61   D(14,15,17,18)       -180.0            estimate D2E/DX2                !
 ! D62   D(14,15,17,19)          0.0004         estimate D2E/DX2                !
 ! D63   D(16,15,17,18)         -0.0008         estimate D2E/DX2                !
 ! D64   D(16,15,17,19)        179.9996         estimate D2E/DX2                !
 ! D65   D(15,17,19,20)       -180.0            estimate D2E/DX2                !
 ! D66   D(15,17,19,21)         -0.0002         estimate D2E/DX2                !
 ! D67   D(18,17,19,20)          0.0004         estimate D2E/DX2                !
 ! D68   D(18,17,19,21)       -179.9998         estimate D2E/DX2                !
 ! D69   D(17,19,21,6)         179.9996         estimate D2E/DX2                !
 ! D70   D(17,19,21,13)         -0.0001         estimate D2E/DX2                !
 ! D71   D(20,19,21,6)          -0.0006         estimate D2E/DX2                !
 ! D72   D(20,19,21,13)        179.9996         estimate D2E/DX2                !
 ! D73   D(13,22,35,36)        179.9997         estimate D2E/DX2                !
 ! D74   D(13,22,35,38)          0.0009         estimate D2E/DX2                !
 ! D75   D(30,23,24,25)         -0.0001         estimate D2E/DX2                !
 ! D76   D(30,23,24,32)        179.9996         estimate D2E/DX2                !
 ! D77   D(37,23,24,25)        180.0            estimate D2E/DX2                !
 ! D78   D(37,23,24,32)         -0.0003         estimate D2E/DX2                !
 ! D79   D(24,23,30,28)          0.0003         estimate D2E/DX2                !
 ! D80   D(24,23,30,31)        179.9995         estimate D2E/DX2                !
 ! D81   D(37,23,30,28)       -179.9998         estimate D2E/DX2                !
 ! D82   D(37,23,30,31)         -0.0005         estimate D2E/DX2                !
 ! D83   D(24,23,37,33)          0.0001         estimate D2E/DX2                !
 ! D84   D(30,23,37,33)       -179.9998         estimate D2E/DX2                !
 ! D85   D(23,24,25,3)         179.9995         estimate D2E/DX2                !
 ! D86   D(23,24,25,26)          0.0            estimate D2E/DX2                !
 ! D87   D(32,24,25,3)          -0.0002         estimate D2E/DX2                !
 ! D88   D(32,24,25,26)       -179.9997         estimate D2E/DX2                !
 ! D89   D(23,24,32,33)          0.0004         estimate D2E/DX2                !
 ! D90   D(25,24,32,33)       -179.9999         estimate D2E/DX2                !
 ! D91   D(3,25,26,27)           0.0006         estimate D2E/DX2                !
 ! D92   D(3,25,26,28)        -179.9996         estimate D2E/DX2                !
 ! D93   D(24,25,26,27)       -179.9999         estimate D2E/DX2                !
 ! D94   D(24,25,26,28)         -0.0001         estimate D2E/DX2                !
 ! D95   D(25,26,28,29)        179.9998         estimate D2E/DX2                !
 ! D96   D(25,26,28,30)          0.0003         estimate D2E/DX2                !
 ! D97   D(27,26,28,29)         -0.0003         estimate D2E/DX2                !
 ! D98   D(27,26,28,30)       -179.9998         estimate D2E/DX2                !
 ! D99   D(26,28,30,23)         -0.0004         estimate D2E/DX2                !
 ! D100  D(26,28,30,31)       -179.9996         estimate D2E/DX2                !
 ! D101  D(29,28,30,23)       -180.0            estimate D2E/DX2                !
 ! D102  D(29,28,30,31)          0.0008         estimate D2E/DX2                !
 ! D103  D(24,32,33,34)       -179.9999         estimate D2E/DX2                !
 ! D104  D(24,32,33,37)         -0.0003         estimate D2E/DX2                !
 ! D105  D(32,33,37,23)          0.0001         estimate D2E/DX2                !
 ! D106  D(34,33,37,23)        179.9997         estimate D2E/DX2                !
 ! D107  D(22,35,38,14)         -0.0007         estimate D2E/DX2                !
 ! D108  D(36,35,38,14)       -179.9995         estimate D2E/DX2                !
 --------------------------------------------------------------------------------
 Trust Radius=3.00D-01 FncErr=1.00D-07 GrdErr=1.00D-06
 Number of steps in this run=    228 maximum allowed number of steps=    228.
 GradGradGradGradGradGradGradGradGradGradGradGradGradGradGradGradGradGrad

                          Input orientation:                          
 ---------------------------------------------------------------------
 Center     Atomic      Atomic             Coordinates (Angstroms)
 Number     Number       Type             X           Y           Z
 ---------------------------------------------------------------------
      1          7           0        1.572774    1.426647    0.000154
      2          6           0        0.211608    1.804155    0.000284
      3          6           0        1.755108    0.052801   -0.000043
      4          6           0        0.488716   -0.522410   -0.000031
      5          6           0       -0.488716    0.522410    0.000158
      6          6           0       -1.755108   -0.052799    0.000107
      7          6           0       -0.211611   -1.804155   -0.000198
      8          7           0       -1.572776   -1.426646   -0.000128
      9          8           0       -0.175588    2.971583    0.000439
     10          8           0        0.175583   -2.971583   -0.000396
     11          1           0       -2.347925   -2.082243   -0.000161
     12          1           0        2.347921    2.082247    0.000168
     13          6           0       -4.277623   -0.194490    0.000184
     14          6           0       -5.527948    0.469234    0.000315
     15          6           0       -5.627766    1.863388    0.000503
     16          1           0       -6.592602    2.359772    0.000609
     17          6           0       -4.441888    2.595629    0.000567
     18          1           0       -4.483405    3.680291    0.000713
     19          6           0       -3.191304    1.964808    0.000439
     20          1           0       -2.288805    2.569790    0.000495
     21          6           0       -3.073314    0.563692    0.000244
     22          7           0       -4.360561   -1.581086   -0.000005
     23          6           0        5.527950   -0.469235   -0.000358
     24          6           0        4.277624    0.194491   -0.000198
     25          6           0        3.073315   -0.563691   -0.000213
     26          6           0        3.191304   -1.964807   -0.000391
     27          1           0        2.288805   -2.569788   -0.000408
     28          6           0        4.441887   -2.595628   -0.000549
     29          1           0        4.483403   -3.680290   -0.000681
     30          6           0        5.627765   -1.863388   -0.000531
     31          1           0        6.592600   -2.359774   -0.000660
     32          7           0        4.360564    1.581086   -0.000029
     33          6           0        5.594763    1.976935   -0.000064
     34          1           0        5.888415    3.020338    0.000049
     35          6           0       -5.594761   -1.976935   -0.000005
     36          1           0       -5.888410   -3.020339   -0.000141
     37         16           0        6.816507    0.719567   -0.000297
     38         16           0       -6.816504   -0.719570    0.000199
 ---------------------------------------------------------------------
                    Distance matrix (angstroms):
                    1          2          3          4          5
     1  N    0.000000
     2  C    1.412546   0.000000
     3  C    1.385893   2.334445   0.000000
     4  C    2.230248   2.343010   1.390905   0.000000
     5  C    2.251085   1.460590   2.292439   1.430742   0.000000
     6  C    3.641917   2.704857   3.511804   2.292440   1.390904
     7  C    3.690814   3.633045   2.704860   1.460592   2.343009
     8  N    4.246854   3.690813   3.641919   2.251087   2.230248
     9  O    2.333152   1.229963   3.499554   3.556584   2.469109
    10  O    4.614821   4.775874   3.412008   2.469109   3.556583
    11  H    5.261577   4.653525   4.625288   3.237223   3.200137
    12  H    1.015216   2.154337   2.114256   3.200138   3.237221
    13  C    6.070851   4.914039   6.037797   4.777606   3.856133
    14  C    7.164977   5.892751   7.294952   6.097836   5.039513
    15  C    7.213773   5.839674   7.601648   6.565317   5.311126
    16  H    8.218521   6.826858   8.660622   7.645393   6.374427
    17  C    6.127208   4.720324   6.698413   5.833783   4.463833
    18  H    6.461905   5.055990   7.216490   6.510352   5.092127
    19  C    4.794378   3.406702   5.303090   4.441711   3.063412
    20  H    4.027228   2.615007   4.763241   4.156480   2.726185
    21  C    4.725550   3.511333   4.855375   3.723933   2.584928
    22  N    6.652137   5.688988   6.330165   4.963495   4.406345
    23  C    4.386090   5.782023   3.808787   5.039515   6.097838
    24  C    2.972276   4.373043   2.526492   3.856134   4.777607
    25  C    2.492603   3.714305   1.455243   2.584929   3.723933
    26  C    3.757872   4.804546   2.476570   3.063412   4.441711
    27  H    4.060073   4.842120   2.676342   2.726184   4.156478
    28  C    4.940699   6.103552   3.772659   4.463832   5.833782
    29  H    5.878143   6.951789   4.623804   5.092124   6.510350
    30  C    5.221808   6.541072   4.320793   5.311125   6.565316
    31  H    6.287737   7.619407   5.405724   6.374426   7.645392
    32  N    2.792065   4.154948   3.020605   4.406348   4.963498
    33  C    4.059460   5.385927   4.294792   5.684931   6.254947
    34  H    4.600501   5.805621   5.088271   6.458159   6.848901
    35  C    7.934603   6.928965   7.624985   6.254945   5.684929
    36  H    8.685905   7.777272   8.238177   6.848897   6.458155
    37  S    5.291191   6.693357   5.105128   6.448523   7.307883
    38  S    8.659459   7.467499   8.606340   7.307880   6.448520
                    6          7          8          9         10
     6  C    0.000000
     7  C    2.334444   0.000000
     8  N    1.385893   1.412545   0.000000
     9  O    3.412004   4.775874   4.614819   0.000000
    10  O    3.499553   1.229962   2.333150   5.953532   0.000000
    11  H    2.114255   2.154338   1.015216   5.500928   2.675634
    12  H    4.625286   4.653528   5.261577   2.675634   5.500932
    13  C    2.526491   4.373040   2.972273   5.181767   5.248170
    14  C    3.808785   5.782018   4.386086   5.908427   6.661043
    15  C    4.320793   6.541071   5.221807   5.563663   7.553529
    16  H    5.405724   7.619405   6.287735   6.446114   8.615781
    17  C    3.772659   6.103552   4.940698   4.282833   7.232903
    18  H    4.623804   6.951789   5.878143   4.365725   8.121182
    19  C    2.476570   4.804545   3.757871   3.179330   5.975273
    20  H    2.676342   4.842120   4.060074   2.151075   6.064654
    21  C    1.455242   3.714303   2.492601   3.767593   4.801406
    22  N    3.020604   4.154942   2.792060   6.183914   4.744479
    23  C    7.294954   5.892756   7.164981   6.661049   5.908433
    24  C    6.037798   4.914043   6.070854   5.248175   5.181772
    25  C    4.855376   3.511337   4.725553   4.801410   3.767598
    26  C    5.303090   3.406705   4.794380   5.975275   3.179335
    27  H    4.763241   2.615009   4.027230   6.064654   2.151080
    28  C    6.698412   4.720326   6.127209   7.232905   4.282837
    29  H    7.216489   5.055990   6.461905   8.121183   4.365728
    30  C    7.601648   5.839676   7.213774   7.553532   5.563666
    31  H    8.660621   6.826859   8.218521   8.615784   6.446116
    32  N    6.330168   5.688993   6.652141   4.744487   6.183920
    33  C    7.624987   6.928970   7.934606   5.855448   7.338620
    34  H    8.238180   7.777278   8.685910   6.064199   8.278863
    35  C    4.294792   5.385922   4.059456   7.338615   5.855441
    36  H    5.088269   5.805614   4.600495   8.278856   6.064189
    37  S    8.606343   7.467504   8.659463   7.345813   7.597793
    38  S    5.105126   6.693350   5.291185   7.597788   7.345804
                   11         12         13         14         15
    11  H    0.000000
    12  H    6.276460   0.000000
    13  C    2.699508   7.005809   0.000000
    14  C    4.077080   8.039348   1.415571   0.000000
    15  C    5.130825   7.978689   2.461249   1.397723   0.000000
    16  H    6.144004   8.944829   3.447228   2.169706   1.085037
    17  C    5.125151   6.809190   2.794950   2.387694   1.393730
    18  H    6.145492   7.015751   3.880242   3.376678   2.147254
    19  C    4.133994   5.540470   2.417159   2.774283   2.438572
    20  H    4.652409   4.662288   3.405384   3.860619   3.412867
    21  C    2.743567   5.629902   1.423095   2.456451   2.866084
    22  N    2.074093   7.643542   1.389074   2.359365   3.670178
    23  C    8.039353   4.077088   9.809421  11.095657  11.396979
    24  C    7.005813   2.699514   8.564085   9.809420  10.044997
    25  C    5.629906   2.743571   7.360204   8.663063   9.033245
    26  C    5.540474   4.133998   7.675864   9.052619   9.614108
    27  H    4.662292   4.652411   6.982837   8.386733   9.073321
    28  C    6.809193   5.125154   9.044076  10.430292  11.012753
    29  H    7.015753   6.145496   9.429018  10.837237  11.531180
    30  C    7.978692   5.130830  10.044995  11.396976  11.856468
    31  H    8.944832   6.144009  11.083781  12.446324  12.929518
    32  N    7.643547   2.074101   8.818784   9.950823   9.992319
    33  C    8.919822   3.248549  10.108367  11.224431  11.223103
    34  H    9.688840   3.662665  10.662244  11.697926  11.574150
    35  C    3.248543   8.919818   2.216295   2.447081   3.840465
    36  H    3.662657   9.688835   3.252700   3.508141   4.890677
    37  S    9.583160   4.671740  11.131721  12.346993  12.496730
    38  S    4.671732   9.583155   2.592610   1.753178   2.843373
                   16         17         18         19         20
    16  H    0.000000
    17  C    2.163608   0.000000
    18  H    2.488470   1.085456   0.000000
    19  C    3.424153   1.400677   2.147652   0.000000
    20  H    4.308918   2.153238   2.459569   1.086512   0.000000
    21  C    3.951113   2.449850   3.420752   1.406075   2.154039
    22  N    4.529058   4.177507   5.262811   3.733701   4.639175
    23  C   12.446327  10.430295  10.837241   9.052622   8.386736
    24  C   11.083783   9.044078   9.429021   7.675865   6.982839
    25  C   10.098346   8.152275   8.666914   6.755646   6.210558
    26  C   10.697046   8.891749   9.527239   7.495303   7.112958
    27  H   10.157753   8.484324   9.215548   7.112957   6.882570
    28  C   12.096113  10.289344  10.910912   8.891748   8.484324
    29  H   12.615872  10.910911  11.600940   9.527238   9.215547
    30  C   12.929519  11.012754  11.531181   9.614108   9.073321
    31  H   14.004416  12.096113  12.615874  10.697046  10.157754
    32  N   10.980810   8.860726   9.089689   7.561610   6.722473
    33  C   12.193376  10.055702  10.221100   8.786075   7.905828
    34  H   12.498485  10.339030  10.392795   9.140867   8.189623
    35  C    4.450024   4.715661   5.765355   4.616703   5.621570
    36  H    5.426000   5.799269   6.846348   5.667987   6.648812
    37  S   13.509052  11.413635  11.681348  10.084984   9.291396
    38  S    3.087471   4.077909   4.980173   4.510871   5.596423
                   21         22         23         24         25
    21  C    0.000000
    22  N    2.501415   0.000000
    23  C    8.663064   9.950822   0.000000
    24  C    7.360204   8.818782   1.415573   0.000000
    25  C    6.249163   7.503173   2.456452   1.423095   0.000000
    26  C    6.755646   7.561607   2.774284   2.417159   1.406075
    27  H    6.210557   6.722470   3.860620   3.405384   2.154038
    28  C    8.152273   8.860722   2.387693   2.794950   2.449848
    29  H    8.666912   9.089684   3.376678   3.880241   3.420751
    30  C    9.033244   9.992315   1.397722   2.461249   2.866082
    31  H   10.098344  10.980806   2.169704   3.447228   3.951111
    32  N    7.503175   9.276710   2.359366   1.389073   2.501415
    33  C    8.782529  10.572038   2.447082   2.216295   3.579453
    34  H    9.292346  11.234528   3.508141   3.252700   4.557417
    35  C    3.579453   1.296127  11.224431  10.108367   8.782528
    36  H    4.557416   2.098993  11.697923  10.662241   9.292343
    37  S    9.891049  11.411391   1.753177   2.592611   3.957049
    38  S    3.957048   2.602665  12.346992  11.131720   9.891047
                   26         27         28         29         30
    26  C    0.000000
    27  H    1.086511   0.000000
    28  C    1.400676   2.153237   0.000000
    29  H    2.147650   2.459568   1.085456   0.000000
    30  C    2.438571   3.412866   1.393730   2.147253   0.000000
    31  H    3.424151   4.308916   2.163607   2.488468   1.085037
    32  N    3.733701   4.639175   4.177506   5.262810   3.670177
    33  C    4.616703   5.621570   4.715661   5.765355   3.840465
    34  H    5.667987   6.648812   5.799269   6.846348   4.890677
    35  C    8.786073   7.905826  10.055699  10.221096  11.223100
    36  H    9.140862   8.189618  10.339024  10.392788  11.574145
    37  S    4.510871   5.596422   4.077909   4.980172   2.843372
    38  S   10.084981   9.291392  11.413631  11.681342  12.496726
                   31         32         33         34         35
    31  H    0.000000
    32  N    4.529058   0.000000
    33  C    4.450025   1.296126   0.000000
    34  H    5.426001   2.098994   1.083938   0.000000
    35  C   12.193373  10.572039  11.867541  12.523421   0.000000
    36  H   12.498478  11.234526  12.523418  13.235686   1.083938
    37  S    3.087471   2.602666   1.753178   2.480908  12.700815
    38  S   13.509047  11.411392  12.700814  13.243937   1.753175
                   36         37         38
    36  H    0.000000
    37  S   13.243935   0.000000
    38  S    2.480906  13.708760   0.000000
 Stoichiometry    C20H10N4O2S2(1-,2)
 Framework group  C1[X(C20H10N4O2S2)]
 Deg. of freedom   108
 Full point group                 C1      NOp   1
 Largest Abelian subgroup         C1      NOp   1
 Largest concise Abelian subgroup C1      NOp   1
                         Standard orientation:                         
 ---------------------------------------------------------------------
 Center     Atomic      Atomic             Coordinates (Angstroms)
 Number     Number       Type             X           Y           Z
 ---------------------------------------------------------------------
      1          7           0        1.572774    1.426647    0.000154
      2          6           0        0.211608    1.804155    0.000284
      3          6           0        1.755108    0.052801   -0.000043
      4          6           0        0.488716   -0.522410   -0.000031
      5          6           0       -0.488716    0.522410    0.000158
      6          6           0       -1.755108   -0.052799    0.000107
      7          6           0       -0.211611   -1.804155   -0.000198
      8          7           0       -1.572776   -1.426646   -0.000128
      9          8           0       -0.175588    2.971583    0.000439
     10          8           0        0.175583   -2.971583   -0.000396
     11          1           0       -2.347925   -2.082243   -0.000161
     12          1           0        2.347921    2.082247    0.000168
     13          6           0       -4.277623   -0.194490    0.000184
     14          6           0       -5.527948    0.469234    0.000315
     15          6           0       -5.627766    1.863388    0.000503
     16          1           0       -6.592602    2.359772    0.000609
     17          6           0       -4.441888    2.595629    0.000567
     18          1           0       -4.483405    3.680291    0.000713
     19          6           0       -3.191304    1.964808    0.000439
     20          1           0       -2.288805    2.569790    0.000495
     21          6           0       -3.073314    0.563692    0.000244
     22          7           0       -4.360561   -1.581086   -0.000005
     23          6           0        5.527950   -0.469235   -0.000358
     24          6           0        4.277624    0.194491   -0.000198
     25          6           0        3.073315   -0.563691   -0.000213
     26          6           0        3.191304   -1.964807   -0.000391
     27          1           0        2.288805   -2.569788   -0.000408
     28          6           0        4.441887   -2.595628   -0.000549
     29          1           0        4.483403   -3.680290   -0.000681
     30          6           0        5.627765   -1.863388   -0.000531
     31          1           0        6.592600   -2.359774   -0.000660
     32          7           0        4.360564    1.581086   -0.000029
     33          6           0        5.594763    1.976935   -0.000064
     34          1           0        5.888415    3.020338    0.000049
     35          6           0       -5.594761   -1.976935   -0.000005
     36          1           0       -5.888410   -3.020339   -0.000141
     37         16           0        6.816507    0.719567   -0.000297
     38         16           0       -6.816504   -0.719570    0.000199
 ---------------------------------------------------------------------
 Rotational constants (GHZ):      0.4806467      0.0673566      0.0590776
 Standard basis: 6-31+G(d,p) (6D, 7F)
 There are   590 symmetry adapted basis functions of A   symmetry.
 Integral buffers will be    262144 words long.
 Raffenetti 2 integral format.
 Two-electron integral symmetry is turned on.
   590 basis functions,  1014 primitive gaussians,   590 cartesian basis functions
   104 alpha electrons      103 beta electrons
       nuclear repulsion energy      2609.1964497715 Hartrees.
 NAtoms=   38 NActive=   38 NUniq=   38 SFac= 1.00D+00 NAtFMM=   50 NAOKFM=F Big=F
 One-electron integrals computed using PRISM.
 NBasis=   590 RedAO= T  NBF=   590
 NBsUse=   580 1.00D-06 NBFU=   580
 Harris functional with IExCor=  402 diagonalized for initial guess.
 ExpMin= 4.05D-02 ExpMax= 2.19D+04 ExpMxC= 3.30D+03 IAcc=2 IRadAn=         0 AccDes= 0.00D+00
 HarFok:  IExCor=  402 AccDes= 0.00D+00 IRadAn=         0 IDoV= 1
 ScaDFX=  1.000000  1.000000  1.000000  1.000000
 FoFCou: FMM=F IPFlag=           0 FMFlag=      100000 FMFlg1=           0
         NFxFlg=           0 DoJE=T BraDBF=F KetDBF=T FulRan=T
         Omega=  0.000000  0.000000  1.000000  0.000000  0.000000 ICntrl=     500 IOpCl=  0
         NMat0=    1 NMatS0=    1 NMatT0=    0 NMatD0=    1 NMtDS0=    0 NMtDT0=    0
         I1Cent=           4 NGrid=           0.
 Petite list used in FoFCou.
 Initial guess orbital symmetries:
 Alpha Orbitals:
       Occupied  (A) (A) (A) (A) (A) (A) (A) (A) (A) (A) (A) (A)
                 (A) (A) (A) (A) (A) (A) (A) (A) (A) (A) (A) (A)
                 (A) (A) (A) (A) (A) (A) (A) (A) (A) (A) (A) (A)
                 (A) (A) (A) (A) (A) (A) (A) (A) (A) (A) (A) (A)
                 (A) (A) (A) (A) (A) (A) (A) (A) (A) (A) (A) (A)
                 (A) (A) (A) (A) (A) (A) (A) (A) (A) (A) (A) (A)
                 (A) (A) (A) (A) (A) (A) (A) (A) (A) (A) (A) (A)
                 (A) (A) (A) (A) (A) (A) (A) (A) (A) (A) (A) (A)
                 (A) (A) (A) (A) (A) (A) (A) (A)
       Virtual   (A) (A) (A) (A) (A) (A) (A) (A) (A) (A) (A) (A)
                 (A) (A) (A) (A) (A) (A) (A) (A) (A) (A) (A) (A)
                 (A) (A) (A) (A) (A) (A) (A) (A) (A) (A) (A) (A)
                 (A) (A) (A) (A) (A) (A) (A) (A) (A) (A) (A) (A)
                 (A) (A) (A) (A) (A) (A) (A) (A) (A) (A) (A) (A)
                 (A) (A) (A) (A) (A) (A) (A) (A) (A) (A) (A) (A)
                 (A) (A) (A) (A) (A) (A) (A) (A) (A) (A) (A) (A)
                 (A) (A) (A) (A) (A) (A) (A) (A) (A) (A) (A) (A)
                 (A) (A) (A) (A) (A) (A) (A) (A) (A) (A) (A) (A)
                 (A) (A) (A) (A) (A) (A) (A) (A) (A) (A) (A) (A)
                 (A) (A) (A) (A) (A) (A) (A) (A) (A) (A) (A) (A)
                 (A) (A) (A) (A) (A) (A) (A) (A) (A) (A) (A) (A)
                 (A) (A) (A) (A) (A) (A) (A) (A) (A) (A) (A) (A)
                 (A) (A) (A) (A) (A) (A) (A) (A) (A) (A) (A) (A)
                 (A) (A) (A) (A) (A) (A) (A) (A) (A) (A) (A) (A)
                 (A) (A) (A) (A) (A) (A) (A) (A) (A) (A) (A) (A)
                 (A) (A) (A) (A) (A) (A) (A) (A) (A) (A) (A) (A)
                 (A) (A) (A) (A) (A) (A) (A) (A) (A) (A) (A) (A)
                 (A) (A) (A) (A) (A) (A) (A) (A) (A) (A) (A) (A)
                 (A) (A) (A) (A) (A) (A) (A) (A) (A) (A) (A) (A)
                 (A) (A) (A) (A) (A) (A) (A) (A) (A) (A) (A) (A)
                 (A) (A) (A) (A) (A) (A) (A) (A) (A) (A) (A) (A)
                 (A) (A) (A) (A) (A) (A) (A) (A) (A) (A) (A) (A)
                 (A) (A) (A) (A) (A) (A) (A) (A) (A) (A) (A) (A)
                 (A) (A) (A) (A) (A) (A) (A) (A) (A) (A) (A) (A)
                 (A) (A) (A) (A) (A) (A) (A) (A) (A) (A) (A) (A)
                 (A) (A) (A) (A) (A) (A) (A) (A) (A) (A) (A) (A)
                 (A) (A) (A) (A) (A) (A) (A) (A) (A) (A) (A) (A)
                 (A) (A) (A) (A) (A) (A) (A) (A) (A) (A) (A) (A)
                 (A) (A) (A) (A) (A) (A) (A) (A) (A) (A) (A) (A)
                 (A) (A) (A) (A) (A) (A) (A) (A) (A) (A) (A) (A)
                 (A) (A) (A) (A) (A) (A) (A) (A) (A) (A) (A) (A)
                 (A) (A) (A) (A) (A) (A) (A) (A) (A) (A) (A) (A)
                 (A) (A) (A) (A) (A) (A) (A) (A) (A) (A) (A) (A)
                 (A) (A) (A) (A) (A) (A) (A) (A) (A) (A) (A) (A)
                 (A) (A) (A) (A) (A) (A) (A) (A) (A) (A) (A) (A)
                 (A) (A) (A) (A) (A) (A) (A) (A) (A) (A) (A) (A)
                 (A) (A) (A) (A) (A) (A) (A) (A) (A) (A) (A) (A)
                 (A) (A) (A) (A) (A) (A) (A) (A) (A) (A) (A) (A)
                 (A) (A) (A) (A) (A) (A) (A) (A)
 Beta  Orbitals:
       Occupied  (A) (A) (A) (A) (A) (A) (A) (A) (A) (A) (A) (A)
                 (A) (A) (A) (A) (A) (A) (A) (A) (A) (A) (A) (A)
                 (A) (A) (A) (A) (A) (A) (A) (A) (A) (A) (A) (A)
                 (A) (A) (A) (A) (A) (A) (A) (A) (A) (A) (A) (A)
                 (A) (A) (A) (A) (A) (A) (A) (A) (A) (A) (A) (A)
                 (A) (A) (A) (A) (A) (A) (A) (A) (A) (A) (A) (A)
                 (A) (A) (A) (A) (A) (A) (A) (A) (A) (A) (A) (A)
                 (A) (A) (A) (A) (A) (A) (A) (A) (A) (A) (A) (A)
                 (A) (A) (A) (A) (A) (A) (A)
       Virtual   (A) (A) (A) (A) (A) (A) (A) (A) (A) (A) (A) (A)
                 (A) (A) (A) (A) (A) (A) (A) (A) (A) (A) (A) (A)
                 (A) (A) (A) (A) (A) (A) (A) (A) (A) (A) (A) (A)
                 (A) (A) (A) (A) (A) (A) (A) (A) (A) (A) (A) (A)
                 (A) (A) (A) (A) (A) (A) (A) (A) (A) (A) (A) (A)
                 (A) (A) (A) (A) (A) (A) (A) (A) (A) (A) (A) (A)
                 (A) (A) (A) (A) (A) (A) (A) (A) (A) (A) (A) (A)
                 (A) (A) (A) (A) (A) (A) (A) (A) (A) (A) (A) (A)
                 (A) (A) (A) (A) (A) (A) (A) (A) (A) (A) (A) (A)
                 (A) (A) (A) (A) (A) (A) (A) (A) (A) (A) (A) (A)
                 (A) (A) (A) (A) (A) (A) (A) (A) (A) (A) (A) (A)
                 (A) (A) (A) (A) (A) (A) (A) (A) (A) (A) (A) (A)
                 (A) (A) (A) (A) (A) (A) (A) (A) (A) (A) (A) (A)
                 (A) (A) (A) (A) (A) (A) (A) (A) (A) (A) (A) (A)
                 (A) (A) (A) (A) (A) (A) (A) (A) (A) (A) (A) (A)
                 (A) (A) (A) (A) (A) (A) (A) (A) (A) (A) (A) (A)
                 (A) (A) (A) (A) (A) (A) (A) (A) (A) (A) (A) (A)
                 (A) (A) (A) (A) (A) (A) (A) (A) (A) (A) (A) (A)
                 (A) (A) (A) (A) (A) (A) (A) (A) (A) (A) (A) (A)
                 (A) (A) (A) (A) (A) (A) (A) (A) (A) (A) (A) (A)
                 (A) (A) (A) (A) (A) (A) (A) (A) (A) (A) (A) (A)
                 (A) (A) (A) (A) (A) (A) (A) (A) (A) (A) (A) (A)
                 (A) (A) (A) (A) (A) (A) (A) (A) (A) (A) (A) (A)
                 (A) (A) (A) (A) (A) (A) (A) (A) (A) (A) (A) (A)
                 (A) (A) (A) (A) (A) (A) (A) (A) (A) (A) (A) (A)
                 (A) (A) (A) (A) (A) (A) (A) (A) (A) (A) (A) (A)
                 (A) (A) (A) (A) (A) (A) (A) (A) (A) (A) (A) (A)
                 (A) (A) (A) (A) (A) (A) (A) (A) (A) (A) (A) (A)
                 (A) (A) (A) (A) (A) (A) (A) (A) (A) (A) (A) (A)
                 (A) (A) (A) (A) (A) (A) (A) (A) (A) (A) (A) (A)
                 (A) (A) (A) (A) (A) (A) (A) (A) (A) (A) (A) (A)
                 (A) (A) (A) (A) (A) (A) (A) (A) (A) (A) (A) (A)
                 (A) (A) (A) (A) (A) (A) (A) (A) (A) (A) (A) (A)
                 (A) (A) (A) (A) (A) (A) (A) (A) (A) (A) (A) (A)
                 (A) (A) (A) (A) (A) (A) (A) (A) (A) (A) (A) (A)
                 (A) (A) (A) (A) (A) (A) (A) (A) (A) (A) (A) (A)
                 (A) (A) (A) (A) (A) (A) (A) (A) (A) (A) (A) (A)
                 (A) (A) (A) (A) (A) (A) (A) (A) (A) (A) (A) (A)
                 (A) (A) (A) (A) (A) (A) (A) (A) (A) (A) (A) (A)
                 (A) (A) (A) (A) (A) (A) (A) (A) (A)
 The electronic state of the initial guess is 2-A.
 Initial guess <Sx>= 0.0000 <Sy>= 0.0000 <Sz>= 0.5000 <S**2>= 0.7500 S= 0.5000
 Requested convergence on RMS density matrix=1.00D-08 within 128 cycles.
 Requested convergence on MAX density matrix=1.00D-06.
 Requested convergence on             energy=1.00D-06.
 No special actions if energy rises.
 EnCoef did     2 forward-backward iterations
 EnCoef did     2 forward-backward iterations
 Restarting incremental Fock formation.
 DSYEVD returned Info=      295728 IAlg= 4 N=   580 NDim=   580 NE2=       55468 trying DSYEV.
 SCF Done:  E(UB3LYP) =  -1934.15540555     A.U. after   24 cycles
             Convg  =    0.6070D-08             -V/T =  2.0067
 <Sx>= 0.0000 <Sy>= 0.0000 <Sz>= 0.5000 <S**2>= 0.7669 S= 0.5084
 <L.S>= 0.000000000000E+00
 Annihilation of the first spin contaminant:
 S**2 before annihilation     0.7669,   after     0.7502

 **********************************************************************

            Population analysis using the SCF density.

 **********************************************************************

 Orbital symmetries:
 Alpha Orbitals:
       Occupied  (A) (A) (A) (A) (A) (A) (A) (A) (A) (A) (A) (A)
                 (A) (A) (A) (A) (A) (A) (A) (A) (A) (A) (A) (A)
                 (A) (A) (A) (A) (A) (A) (A) (A) (A) (A) (A) (A)
                 (A) (A) (A) (A) (A) (A) (A) (A) (A) (A) (A) (A)
                 (A) (A) (A) (A) (A) (A) (A) (A) (A) (A) (A) (A)
                 (A) (A) (A) (A) (A) (A) (A) (A) (A) (A) (A) (A)
                 (A) (A) (A) (A) (A) (A) (A) (A) (A) (A) (A) (A)
                 (A) (A) (A) (A) (A) (A) (A) (A) (A) (A) (A) (A)
                 (A) (A) (A) (A) (A) (A) (A) (A)
       Virtual   (A) (A) (A) (A) (A) (A) (A) (A) (A) (A) (A) (A)
                 (A) (A) (A) (A) (A) (A) (A) (A) (A) (A) (A) (A)
                 (A) (A) (A) (A) (A) (A) (A) (A) (A) (A) (A) (A)
                 (A) (A) (A) (A) (A) (A) (A) (A) (A) (A) (A) (A)
                 (A) (A) (A) (A) (A) (A) (A) (A) (A) (A) (A) (A)
                 (A) (A) (A) (A) (A) (A) (A) (A) (A) (A) (A) (A)
                 (A) (A) (A) (A) (A) (A) (A) (A) (A) (A) (A) (A)
                 (A) (A) (A) (A) (A) (A) (A) (A) (A) (A) (A) (A)
                 (A) (A) (A) (A) (A) (A) (A) (A) (A) (A) (A) (A)
                 (A) (A) (A) (A) (A) (A) (A) (A) (A) (A) (A) (A)
                 (A) (A) (A) (A) (A) (A) (A) (A) (A) (A) (A) (A)
                 (A) (A) (A) (A) (A) (A) (A) (A) (A) (A) (A) (A)
                 (A) (A) (A) (A) (A) (A) (A) (A) (A) (A) (A) (A)
                 (A) (A) (A) (A) (A) (A) (A) (A) (A) (A) (A) (A)
                 (A) (A) (A) (A) (A) (A) (A) (A) (A) (A) (A) (A)
                 (A) (A) (A) (A) (A) (A) (A) (A) (A) (A) (A) (A)
                 (A) (A) (A) (A) (A) (A) (A) (A) (A) (A) (A) (A)
                 (A) (A) (A) (A) (A) (A) (A) (A) (A) (A) (A) (A)
                 (A) (A) (A) (A) (A) (A) (A) (A) (A) (A) (A) (A)
                 (A) (A) (A) (A) (A) (A) (A) (A) (A) (A) (A) (A)
                 (A) (A) (A) (A) (A) (A) (A) (A) (A) (A) (A) (A)
                 (A) (A) (A) (A) (A) (A) (A) (A) (A) (A) (A) (A)
                 (A) (A) (A) (A) (A) (A) (A) (A) (A) (A) (A) (A)
                 (A) (A) (A) (A) (A) (A) (A) (A) (A) (A) (A) (A)
                 (A) (A) (A) (A) (A) (A) (A) (A) (A) (A) (A) (A)
                 (A) (A) (A) (A) (A) (A) (A) (A) (A) (A) (A) (A)
                 (A) (A) (A) (A) (A) (A) (A) (A) (A) (A) (A) (A)
                 (A) (A) (A) (A) (A) (A) (A) (A) (A) (A) (A) (A)
                 (A) (A) (A) (A) (A) (A) (A) (A) (A) (A) (A) (A)
                 (A) (A) (A) (A) (A) (A) (A) (A) (A) (A) (A) (A)
                 (A) (A) (A) (A) (A) (A) (A) (A) (A) (A) (A) (A)
                 (A) (A) (A) (A) (A) (A) (A) (A) (A) (A) (A) (A)
                 (A) (A) (A) (A) (A) (A) (A) (A) (A) (A) (A) (A)
                 (A) (A) (A) (A) (A) (A) (A) (A) (A) (A) (A) (A)
                 (A) (A) (A) (A) (A) (A) (A) (A) (A) (A) (A) (A)
                 (A) (A) (A) (A) (A) (A) (A) (A) (A) (A) (A) (A)
                 (A) (A) (A) (A) (A) (A) (A) (A) (A) (A) (A) (A)
                 (A) (A) (A) (A) (A) (A) (A) (A) (A) (A) (A) (A)
                 (A) (A) (A) (A) (A) (A) (A) (A) (A) (A) (A) (A)
                 (A) (A) (A) (A) (A) (A) (A) (A)
 Beta  Orbitals:
       Occupied  (A) (A) (A) (A) (A) (A) (A) (A) (A) (A) (A) (A)
                 (A) (A) (A) (A) (A) (A) (A) (A) (A) (A) (A) (A)
                 (A) (A) (A) (A) (A) (A) (A) (A) (A) (A) (A) (A)
                 (A) (A) (A) (A) (A) (A) (A) (A) (A) (A) (A) (A)
                 (A) (A) (A) (A) (A) (A) (A) (A) (A) (A) (A) (A)
                 (A) (A) (A) (A) (A) (A) (A) (A) (A) (A) (A) (A)
                 (A) (A) (A) (A) (A) (A) (A) (A) (A) (A) (A) (A)
                 (A) (A) (A) (A) (A) (A) (A) (A) (A) (A) (A) (A)
                 (A) (A) (A) (A) (A) (A) (A)
       Virtual   (A) (A) (A) (A) (A) (A) (A) (A) (A) (A) (A) (A)
                 (A) (A) (A) (A) (A) (A) (A) (A) (A) (A) (A) (A)
                 (A) (A) (A) (A) (A) (A) (A) (A) (A) (A) (A) (A)
                 (A) (A) (A) (A) (A) (A) (A) (A) (A) (A) (A) (A)
                 (A) (A) (A) (A) (A) (A) (A) (A) (A) (A) (A) (A)
                 (A) (A) (A) (A) (A) (A) (A) (A) (A) (A) (A) (A)
                 (A) (A) (A) (A) (A) (A) (A) (A) (A) (A) (A) (A)
                 (A) (A) (A) (A) (A) (A) (A) (A) (A) (A) (A) (A)
                 (A) (A) (A) (A) (A) (A) (A) (A) (A) (A) (A) (A)
                 (A) (A) (A) (A) (A) (A) (A) (A) (A) (A) (A) (A)
                 (A) (A) (A) (A) (A) (A) (A) (A) (A) (A) (A) (A)
                 (A) (A) (A) (A) (A) (A) (A) (A) (A) (A) (A) (A)
                 (A) (A) (A) (A) (A) (A) (A) (A) (A) (A) (A) (A)
                 (A) (A) (A) (A) (A) (A) (A) (A) (A) (A) (A) (A)
                 (A) (A) (A) (A) (A) (A) (A) (A) (A) (A) (A) (A)
                 (A) (A) (A) (A) (A) (A) (A) (A) (A) (A) (A) (A)
                 (A) (A) (A) (A) (A) (A) (A) (A) (A) (A) (A) (A)
                 (A) (A) (A) (A) (A) (A) (A) (A) (A) (A) (A) (A)
                 (A) (A) (A) (A) (A) (A) (A) (A) (A) (A) (A) (A)
                 (A) (A) (A) (A) (A) (A) (A) (A) (A) (A) (A) (A)
                 (A) (A) (A) (A) (A) (A) (A) (A) (A) (A) (A) (A)
                 (A) (A) (A) (A) (A) (A) (A) (A) (A) (A) (A) (A)
                 (A) (A) (A) (A) (A) (A) (A) (A) (A) (A) (A) (A)
                 (A) (A) (A) (A) (A) (A) (A) (A) (A) (A) (A) (A)
                 (A) (A) (A) (A) (A) (A) (A) (A) (A) (A) (A) (A)
                 (A) (A) (A) (A) (A) (A) (A) (A) (A) (A) (A) (A)
                 (A) (A) (A) (A) (A) (A) (A) (A) (A) (A) (A) (A)
                 (A) (A) (A) (A) (A) (A) (A) (A) (A) (A) (A) (A)
                 (A) (A) (A) (A) (A) (A) (A) (A) (A) (A) (A) (A)
                 (A) (A) (A) (A) (A) (A) (A) (A) (A) (A) (A) (A)
                 (A) (A) (A) (A) (A) (A) (A) (A) (A) (A) (A) (A)
                 (A) (A) (A) (A) (A) (A) (A) (A) (A) (A) (A) (A)
                 (A) (A) (A) (A) (A) (A) (A) (A) (A) (A) (A) (A)
                 (A) (A) (A) (A) (A) (A) (A) (A) (A) (A) (A) (A)
                 (A) (A) (A) (A) (A) (A) (A) (A) (A) (A) (A) (A)
                 (A) (A) (A) (A) (A) (A) (A) (A) (A) (A) (A) (A)
                 (A) (A) (A) (A) (A) (A) (A) (A) (A) (A) (A) (A)
                 (A) (A) (A) (A) (A) (A) (A) (A) (A) (A) (A) (A)
                 (A) (A) (A) (A) (A) (A) (A) (A) (A) (A) (A) (A)
                 (A) (A) (A) (A) (A) (A) (A) (A) (A)
 The electronic state is 2-A.
 Alpha  occ. eigenvalues --  -88.83524 -88.83524 -19.00087 -19.00087 -14.26368
 Alpha  occ. eigenvalues --  -14.26368 -14.24809 -14.24809 -10.17161 -10.17161
 Alpha  occ. eigenvalues --  -10.16689 -10.16688 -10.14042 -10.14042 -10.13516
 Alpha  occ. eigenvalues --  -10.13516 -10.12082 -10.12082 -10.10868 -10.10868
 Alpha  occ. eigenvalues --  -10.10604 -10.10604 -10.10072 -10.10072 -10.08557
 Alpha  occ. eigenvalues --  -10.08557 -10.06225 -10.06181  -7.89541  -7.89541
 Alpha  occ. eigenvalues --   -5.85945  -5.85945  -5.85621  -5.85621  -5.85231
 Alpha  occ. eigenvalues --   -5.85231  -0.91775  -0.91316  -0.88425  -0.88421
 Alpha  occ. eigenvalues --   -0.84351  -0.82971  -0.75972  -0.75961  -0.71956
 Alpha  occ. eigenvalues --   -0.71936  -0.67641  -0.66568  -0.66209  -0.64840
 Alpha  occ. eigenvalues --   -0.64422  -0.59814  -0.57248  -0.54572  -0.53536
 Alpha  occ. eigenvalues --   -0.53150  -0.51197  -0.50149  -0.49070  -0.48367
 Alpha  occ. eigenvalues --   -0.44383  -0.42294  -0.40710  -0.40609  -0.39703
 Alpha  occ. eigenvalues --   -0.39603  -0.39436  -0.38741  -0.37126  -0.36269
 Alpha  occ. eigenvalues --   -0.35141  -0.34507  -0.34020  -0.33463  -0.32931
 Alpha  occ. eigenvalues --   -0.32334  -0.31705  -0.31230  -0.30568  -0.30459
 Alpha  occ. eigenvalues --   -0.30147  -0.29656  -0.27510  -0.27136  -0.26326
 Alpha  occ. eigenvalues --   -0.26069  -0.25806  -0.25646  -0.24761  -0.23895
 Alpha  occ. eigenvalues --   -0.23121  -0.20590  -0.20463  -0.20163  -0.19953
 Alpha  occ. eigenvalues --   -0.15673  -0.15636  -0.15149  -0.14970  -0.14957
 Alpha  occ. eigenvalues --   -0.13264  -0.13189  -0.07808  -0.02001
 Alpha virt. eigenvalues --    0.03803   0.05144   0.06720   0.06759   0.06886
 Alpha virt. eigenvalues --    0.07821   0.07888   0.09396   0.10147   0.10342
 Alpha virt. eigenvalues --    0.10470   0.10604   0.10768   0.11130   0.11898
 Alpha virt. eigenvalues --    0.12080   0.12137   0.12532   0.12904   0.13311
 Alpha virt. eigenvalues --    0.14150   0.14158   0.14206   0.14845   0.15096
 Alpha virt. eigenvalues --    0.15751   0.15964   0.16034   0.16813   0.16854
 Alpha virt. eigenvalues --    0.17098   0.17706   0.18324   0.18521   0.18941
 Alpha virt. eigenvalues --    0.19055   0.19442   0.19882   0.20338   0.20615
 Alpha virt. eigenvalues --    0.20702   0.20768   0.20772   0.21034   0.21906
 Alpha virt. eigenvalues --    0.22012   0.22411   0.22502   0.22963   0.23136
 Alpha virt. eigenvalues --    0.23434   0.24485   0.24532   0.24716   0.24787
 Alpha virt. eigenvalues --    0.25135   0.25605   0.25741   0.26252   0.26451
 Alpha virt. eigenvalues --    0.26822   0.27040   0.27655   0.27992   0.28048
 Alpha virt. eigenvalues --    0.28266   0.28408   0.28527   0.29087   0.29195
 Alpha virt. eigenvalues --    0.29244   0.29644   0.29677   0.29808   0.29871
 Alpha virt. eigenvalues --    0.30595   0.30998   0.31135   0.31765   0.31952
 Alpha virt. eigenvalues --    0.32171   0.32347   0.32437   0.32516   0.33326
 Alpha virt. eigenvalues --    0.33377   0.33761   0.34145   0.34272   0.34973
 Alpha virt. eigenvalues --    0.35214   0.35323   0.35403   0.36280   0.36394
 Alpha virt. eigenvalues --    0.36761   0.36951   0.36961   0.37121   0.37887
 Alpha virt. eigenvalues --    0.38200   0.38340   0.38673   0.38710   0.38851
 Alpha virt. eigenvalues --    0.38933   0.39380   0.39935   0.40109   0.41077
 Alpha virt. eigenvalues --    0.41152   0.41522   0.41536   0.42047   0.42593
 Alpha virt. eigenvalues --    0.43080   0.43413   0.43434   0.43745   0.43760
 Alpha virt. eigenvalues --    0.44107   0.44620   0.44751   0.45291   0.45903
 Alpha virt. eigenvalues --    0.46180   0.46772   0.47555   0.48592   0.49025
 Alpha virt. eigenvalues --    0.49602   0.50243   0.51488   0.52220   0.52512
 Alpha virt. eigenvalues --    0.53127   0.54030   0.54701   0.54894   0.56391
 Alpha virt. eigenvalues --    0.56989   0.57394   0.59004   0.59156   0.59351
 Alpha virt. eigenvalues --    0.59709   0.60089   0.62161   0.62162   0.62528
 Alpha virt. eigenvalues --    0.62954   0.63448   0.63616   0.66333   0.67870
 Alpha virt. eigenvalues --    0.68815   0.69821   0.70392   0.70980   0.71167
 Alpha virt. eigenvalues --    0.71828   0.73636   0.75152   0.75484   0.75485
 Alpha virt. eigenvalues --    0.76431   0.77003   0.77399   0.77838   0.78158
 Alpha virt. eigenvalues --    0.78219   0.80087   0.80463   0.81237   0.81878
 Alpha virt. eigenvalues --    0.82728   0.83189   0.83348   0.83800   0.84060
 Alpha virt. eigenvalues --    0.84395   0.85275   0.85657   0.85793   0.87113
 Alpha virt. eigenvalues --    0.87927   0.89129   0.89697   0.89870   0.90476
 Alpha virt. eigenvalues --    0.90625   0.90705   0.91097   0.91241   0.92527
 Alpha virt. eigenvalues --    0.93466   0.93541   0.94637   0.95418   0.96426
 Alpha virt. eigenvalues --    0.98159   0.98444   0.98964   0.99041   0.99623
 Alpha virt. eigenvalues --    1.00081   1.00195   1.00418   1.00659   1.00695
 Alpha virt. eigenvalues --    1.04407   1.04864   1.06524   1.06583   1.08420
 Alpha virt. eigenvalues --    1.08770   1.09308   1.09915   1.10424   1.10873
 Alpha virt. eigenvalues --    1.11098   1.12250   1.12345   1.13322   1.14040
 Alpha virt. eigenvalues --    1.14202   1.14953   1.15242   1.16877   1.17042
 Alpha virt. eigenvalues --    1.18547   1.19966   1.20800   1.23922   1.23943
 Alpha virt. eigenvalues --    1.24244   1.25492   1.25730   1.27127   1.27429
 Alpha virt. eigenvalues --    1.28625   1.29779   1.31948   1.32245   1.32747
 Alpha virt. eigenvalues --    1.32750   1.33337   1.34234   1.34268   1.35755
 Alpha virt. eigenvalues --    1.37259   1.37310   1.38461   1.39660   1.39938
 Alpha virt. eigenvalues --    1.40023   1.40883   1.41282   1.41413   1.41555
 Alpha virt. eigenvalues --    1.42245   1.43137   1.44123   1.44237   1.44646
 Alpha virt. eigenvalues --    1.45052   1.45233   1.46331   1.46351   1.46897
 Alpha virt. eigenvalues --    1.46989   1.48740   1.49288   1.49842   1.50063
 Alpha virt. eigenvalues --    1.50582   1.50740   1.51119   1.52022   1.52127
 Alpha virt. eigenvalues --    1.52499   1.52840   1.54036   1.55066   1.55125
 Alpha virt. eigenvalues --    1.57980   1.58103   1.59868   1.63547   1.63669
 Alpha virt. eigenvalues --    1.63718   1.65529   1.66706   1.68474   1.70767
 Alpha virt. eigenvalues --    1.71340   1.74752   1.76303   1.76341   1.76772
 Alpha virt. eigenvalues --    1.78093   1.78566   1.81122   1.81849   1.84411
 Alpha virt. eigenvalues --    1.86352   1.86392   1.88522   1.89100   1.89431
 Alpha virt. eigenvalues --    1.90815   1.92650   1.95022   1.95382   1.95810
 Alpha virt. eigenvalues --    1.96810   1.99057   1.99404   1.99878   2.00160
 Alpha virt. eigenvalues --    2.01533   2.03118   2.03604   2.04151   2.04165
 Alpha virt. eigenvalues --    2.04268   2.04887   2.05491   2.06286   2.07090
 Alpha virt. eigenvalues --    2.08903   2.10743   2.10996   2.12994   2.13194
 Alpha virt. eigenvalues --    2.13232   2.13506   2.13968   2.15316   2.17213
 Alpha virt. eigenvalues --    2.17237   2.17367   2.18764   2.19131   2.20750
 Alpha virt. eigenvalues --    2.22414   2.23757   2.24296   2.26101   2.28269
 Alpha virt. eigenvalues --    2.29012   2.29452   2.30659   2.32070   2.32792
 Alpha virt. eigenvalues --    2.33597   2.35060   2.35805   2.37529   2.38749
 Alpha virt. eigenvalues --    2.41181   2.41788   2.41917   2.42827   2.44523
 Alpha virt. eigenvalues --    2.45983   2.46654   2.47901   2.48284   2.49434
 Alpha virt. eigenvalues --    2.49540   2.50657   2.51156   2.53109   2.54510
 Alpha virt. eigenvalues --    2.56029   2.57472   2.58220   2.58599   2.59161
 Alpha virt. eigenvalues --    2.59843   2.61062   2.62148   2.62502   2.62736
 Alpha virt. eigenvalues --    2.63373   2.63864   2.65254   2.65489   2.68003
 Alpha virt. eigenvalues --    2.68485   2.68726   2.70801   2.71251   2.71842
 Alpha virt. eigenvalues --    2.74078   2.74633   2.75771   2.75894   2.76271
 Alpha virt. eigenvalues --    2.76454   2.76730   2.78685   2.79623   2.83665
 Alpha virt. eigenvalues --    2.83892   2.85163   2.86624   2.87803   2.90194
 Alpha virt. eigenvalues --    2.90586   2.92180   2.93938   2.95558   2.95730
 Alpha virt. eigenvalues --    2.96595   3.00442   3.04781   3.05879   3.07498
 Alpha virt. eigenvalues --    3.09229   3.13385   3.13455   3.15658   3.17347
 Alpha virt. eigenvalues --    3.19169   3.22712   3.23556   3.25676   3.27882
 Alpha virt. eigenvalues --    3.34318   3.34490   3.36325   3.39795   3.40555
 Alpha virt. eigenvalues --    3.41237   3.43054   3.43316   3.49404   3.50802
 Alpha virt. eigenvalues --    3.54060   3.55553   3.57934   3.63838   3.73662
 Alpha virt. eigenvalues --    3.75001   3.89315   3.89567   4.07663   4.08076
 Alpha virt. eigenvalues --    4.33527   4.34927   4.38877   4.40371   4.41273
 Alpha virt. eigenvalues --    4.44533   4.45072   4.46277   4.48585   4.49654
 Alpha virt. eigenvalues --    4.54896   4.55472   4.57133   4.58292   4.59714
 Alpha virt. eigenvalues --    4.64872   4.66604   4.70152   4.71801   4.74702
 Alpha virt. eigenvalues --    4.80551   4.89503   4.97140   4.99449   5.18547
 Alpha virt. eigenvalues --    5.27499
  Beta  occ. eigenvalues --  -88.83520 -88.83520 -18.99927 -18.99927 -14.26412
  Beta  occ. eigenvalues --  -14.26412 -14.24822 -14.24822 -10.17036 -10.17036
  Beta  occ. eigenvalues --  -10.16635 -10.16634 -10.14106 -10.14106 -10.13414
  Beta  occ. eigenvalues --  -10.13414 -10.11779 -10.11779 -10.10890 -10.10890
  Beta  occ. eigenvalues --  -10.10430 -10.10430 -10.10109 -10.10109 -10.08438
  Beta  occ. eigenvalues --  -10.08438 -10.06263 -10.06219  -7.89538  -7.89537
  Beta  occ. eigenvalues --   -5.85944  -5.85944  -5.85620  -5.85620  -5.85217
  Beta  occ. eigenvalues --   -5.85217  -0.91526  -0.91056  -0.88352  -0.88347
  Beta  occ. eigenvalues --   -0.84123  -0.82753  -0.75847  -0.75836  -0.71892
  Beta  occ. eigenvalues --   -0.71870  -0.67591  -0.66337  -0.66017  -0.64621
  Beta  occ. eigenvalues --   -0.64210  -0.59442  -0.56726  -0.54464  -0.53386
  Beta  occ. eigenvalues --   -0.53016  -0.51120  -0.50055  -0.48936  -0.48200
  Beta  occ. eigenvalues --   -0.44273  -0.42156  -0.40595  -0.40559  -0.39618
  Beta  occ. eigenvalues --   -0.39503  -0.39349  -0.38666  -0.37011  -0.36109
  Beta  occ. eigenvalues --   -0.35029  -0.34088  -0.33727  -0.33382  -0.32478
  Beta  occ. eigenvalues --   -0.32254  -0.31602  -0.31085  -0.30473  -0.30403
  Beta  occ. eigenvalues --   -0.30070  -0.29045  -0.27429  -0.27047  -0.25981
  Beta  occ. eigenvalues --   -0.25720  -0.25578  -0.25296  -0.24676  -0.23292
  Beta  occ. eigenvalues --   -0.22582  -0.20185  -0.20020  -0.19998  -0.19970
  Beta  occ. eigenvalues --   -0.15173  -0.15136  -0.14815  -0.14603  -0.14422
  Beta  occ. eigenvalues --   -0.13186  -0.13128  -0.06520
  Beta virt. eigenvalues --    0.02184   0.04594   0.05793   0.06740   0.06780
  Beta virt. eigenvalues --    0.07520   0.07822   0.07887   0.09979   0.10145
  Beta virt. eigenvalues --    0.10337   0.10469   0.10601   0.11097   0.11606
  Beta virt. eigenvalues --    0.11900   0.12135   0.12279   0.12687   0.12917
  Beta virt. eigenvalues --    0.13317   0.14160   0.14208   0.14824   0.14952
  Beta virt. eigenvalues --    0.15109   0.15945   0.16050   0.16095   0.16870
  Beta virt. eigenvalues --    0.16871   0.17122   0.17721   0.18339   0.18702
  Beta virt. eigenvalues --    0.18960   0.19123   0.19443   0.19898   0.20341
  Beta virt. eigenvalues --    0.20707   0.20789   0.20816   0.20870   0.21323
  Beta virt. eigenvalues --    0.22030   0.22062   0.22743   0.22811   0.22971
  Beta virt. eigenvalues --    0.23163   0.23461   0.24526   0.24633   0.24748
  Beta virt. eigenvalues --    0.24808   0.25157   0.25669   0.26021   0.26284
  Beta virt. eigenvalues --    0.26466   0.26840   0.27052   0.27682   0.28071
  Beta virt. eigenvalues --    0.28168   0.28425   0.28565   0.28568   0.29095
  Beta virt. eigenvalues --    0.29295   0.29411   0.29744   0.29938   0.30103
  Beta virt. eigenvalues --    0.30174   0.30639   0.31038   0.31201   0.31806
  Beta virt. eigenvalues --    0.31949   0.32364   0.32392   0.32518   0.32661
  Beta virt. eigenvalues --    0.33430   0.33439   0.33838   0.34201   0.34361
  Beta virt. eigenvalues --    0.35000   0.35196   0.35347   0.35471   0.36337
  Beta virt. eigenvalues --    0.36421   0.36857   0.37033   0.37077   0.37193
  Beta virt. eigenvalues --    0.37971   0.38238   0.38359   0.38738   0.38773
  Beta virt. eigenvalues --    0.38865   0.38999   0.39458   0.40035   0.40141
  Beta virt. eigenvalues --    0.41125   0.41213   0.41557   0.41646   0.42105
  Beta virt. eigenvalues --    0.42685   0.43132   0.43490   0.43578   0.43836
  Beta virt. eigenvalues --    0.43855   0.44228   0.44806   0.44872   0.45366
  Beta virt. eigenvalues --    0.45926   0.46382   0.46828   0.47625   0.48684
  Beta virt. eigenvalues --    0.49113   0.49737   0.50448   0.51544   0.52247
  Beta virt. eigenvalues --    0.52583   0.53227   0.54095   0.54746   0.54968
  Beta virt. eigenvalues --    0.56465   0.57028   0.57505   0.59054   0.59186
  Beta virt. eigenvalues --    0.59382   0.59737   0.60122   0.62259   0.62284
  Beta virt. eigenvalues --    0.62642   0.63027   0.63528   0.63663   0.66396
  Beta virt. eigenvalues --    0.67911   0.68908   0.69904   0.70809   0.71095
  Beta virt. eigenvalues --    0.71563   0.71923   0.73739   0.75262   0.75392
  Beta virt. eigenvalues --    0.75398   0.76478   0.77058   0.77441   0.78151
  Beta virt. eigenvalues --    0.78273   0.78474   0.80269   0.80516   0.81299
  Beta virt. eigenvalues --    0.82570   0.83172   0.83431   0.83661   0.83853
  Beta virt. eigenvalues --    0.84341   0.84504   0.85661   0.85689   0.86141
  Beta virt. eigenvalues --    0.87443   0.88269   0.89196   0.89762   0.90542
  Beta virt. eigenvalues --    0.90569   0.90702   0.90781   0.91310   0.91439
  Beta virt. eigenvalues --    0.92806   0.93596   0.93602   0.94695   0.95542
  Beta virt. eigenvalues --    0.96496   0.98215   0.98491   0.99042   0.99120
  Beta virt. eigenvalues --    0.99999   1.00129   1.00337   1.00594   1.00756
  Beta virt. eigenvalues --    1.00790   1.04458   1.04915   1.06566   1.06630
  Beta virt. eigenvalues --    1.08462   1.08806   1.09352   1.09970   1.10497
  Beta virt. eigenvalues --    1.10949   1.11048   1.12224   1.12409   1.13375
  Beta virt. eigenvalues --    1.14120   1.14221   1.15033   1.15315   1.16960
  Beta virt. eigenvalues --    1.17059   1.18663   1.20018   1.20870   1.23973
  Beta virt. eigenvalues --    1.24003   1.24303   1.25563   1.25786   1.27196
  Beta virt. eigenvalues --    1.27473   1.28691   1.29850   1.32050   1.32290
  Beta virt. eigenvalues --    1.32994   1.33050   1.33402   1.34316   1.34623
  Beta virt. eigenvalues --    1.35847   1.37366   1.37816   1.38556   1.39795
  Beta virt. eigenvalues --    1.40410   1.40422   1.41008   1.41361   1.41657
  Beta virt. eigenvalues --    1.41801   1.42360   1.43238   1.44414   1.44420
  Beta virt. eigenvalues --    1.44794   1.45377   1.45443   1.46495   1.46554
  Beta virt. eigenvalues --    1.47095   1.47146   1.48857   1.49546   1.49971
  Beta virt. eigenvalues --    1.50348   1.50757   1.51079   1.51216   1.52283
  Beta virt. eigenvalues --    1.52287   1.52760   1.53107   1.54158   1.55225
  Beta virt. eigenvalues --    1.55278   1.58145   1.58175   1.59961   1.63654
  Beta virt. eigenvalues --    1.63784   1.63831   1.65609   1.66812   1.68615
  Beta virt. eigenvalues --    1.70939   1.71480   1.74870   1.76656   1.76698
  Beta virt. eigenvalues --    1.76915   1.78267   1.78899   1.81181   1.81955
  Beta virt. eigenvalues --    1.84692   1.86442   1.86493   1.88921   1.89434
  Beta virt. eigenvalues --    1.89513   1.90890   1.92794   1.95224   1.95746
  Beta virt. eigenvalues --    1.95916   1.96966   1.99174   1.99522   2.00112
  Beta virt. eigenvalues --    2.00290   2.01705   2.03243   2.03703   2.04238
  Beta virt. eigenvalues --    2.04255   2.04360   2.04970   2.05585   2.06468
  Beta virt. eigenvalues --    2.07218   2.09101   2.10970   2.11178   2.13164
  Beta virt. eigenvalues --    2.13293   2.13329   2.13587   2.14146   2.15554
  Beta virt. eigenvalues --    2.17244   2.17345   2.17578   2.18984   2.19195
  Beta virt. eigenvalues --    2.20872   2.22598   2.23947   2.24774   2.26329
  Beta virt. eigenvalues --    2.28580   2.29292   2.29640   2.30879   2.32254
  Beta virt. eigenvalues --    2.32942   2.33806   2.35273   2.36084   2.37840
  Beta virt. eigenvalues --    2.39047   2.41538   2.42174   2.42187   2.43068
  Beta virt. eigenvalues --    2.44761   2.46302   2.47070   2.47969   2.48331
  Beta virt. eigenvalues --    2.49522   2.49667   2.50772   2.51344   2.53412
  Beta virt. eigenvalues --    2.54695   2.56337   2.57670   2.58257   2.58669
  Beta virt. eigenvalues --    2.59436   2.59969   2.61172   2.62408   2.62762
  Beta virt. eigenvalues --    2.62812   2.63620   2.64120   2.65371   2.65524
  Beta virt. eigenvalues --    2.68339   2.68562   2.68856   2.70867   2.71319
  Beta virt. eigenvalues --    2.72008   2.74369   2.74710   2.75922   2.76091
  Beta virt. eigenvalues --    2.76504   2.76531   2.76814   2.79043   2.79837
  Beta virt. eigenvalues --    2.83986   2.84067   2.85283   2.86720   2.87916
  Beta virt. eigenvalues --    2.90507   2.90721   2.92341   2.94283   2.95683
  Beta virt. eigenvalues --    2.95818   2.96679   3.00537   3.04996   3.05889
  Beta virt. eigenvalues --    3.07572   3.09394   3.13436   3.13555   3.15757
  Beta virt. eigenvalues --    3.17633   3.19239   3.22867   3.23650   3.25763
  Beta virt. eigenvalues --    3.27990   3.34396   3.34573   3.36406   3.39831
  Beta virt. eigenvalues --    3.40576   3.41311   3.43149   3.43422   3.49461
  Beta virt. eigenvalues --    3.50861   3.54125   3.55618   3.58000   3.63923
  Beta virt. eigenvalues --    3.73720   3.75038   3.89378   3.89630   4.07680
  Beta virt. eigenvalues --    4.08092   4.33535   4.34949   4.38938   4.40516
  Beta virt. eigenvalues --    4.41427   4.44529   4.45184   4.46444   4.48749
  Beta virt. eigenvalues --    4.49871   4.55046   4.55691   4.57239   4.58355
  Beta virt. eigenvalues --    4.59875   4.64984   4.66798   4.70329   4.72066
  Beta virt. eigenvalues --    4.75001   4.80818   4.89648   4.97366   4.99679
  Beta virt. eigenvalues --    5.18709   5.27671
          Condensed to atoms (all electrons):
              1          2          3          4          5          6
     1  N    7.518397   0.293432   0.070079  -0.201752  -0.261545   0.048365
     2  C    0.293432   7.656157  -0.392367  -0.545348  -1.514443   0.149515
     3  C    0.070079  -0.392367   8.912082   0.145900  -0.681138   0.598629
     4  C   -0.201752  -0.545348   0.145900  10.305759   0.482805  -0.681305
     5  C   -0.261545  -1.514443  -0.681138   0.482805  10.305988   0.146090
     6  C    0.048365   0.149515   0.598629  -0.681305   0.146090   8.912002
     7  C   -0.062939  -0.129892   0.149616  -1.514241  -0.545507  -0.392335
     8  N    0.007191  -0.062935   0.048375  -0.261515  -0.201757   0.070088
     9  O   -0.102299   0.343893  -0.042532  -0.017854  -0.071992   0.050695
    10  O   -0.005735   0.012609   0.050686  -0.072008  -0.017847  -0.042537
    11  H    0.000043   0.003574  -0.005165  -0.028049   0.047141  -0.004095
    12  H    0.273933  -0.021864  -0.004103   0.047144  -0.028055  -0.005167
    13  C    0.011058  -0.130010  -0.192173  -0.457265   0.423555  -0.453349
    14  C   -0.003395  -0.138310  -0.188399  -0.160144  -0.403156  -0.839175
    15  C    0.001587   0.027717   0.004465  -0.182253   0.065788  -0.447458
    16  H   -0.000001  -0.000158  -0.000006   0.000003   0.000315   0.001429
    17  C    0.026502   0.010427   0.171995   0.229081   0.058452  -0.261499
    18  H    0.000006  -0.000637   0.000036  -0.000304  -0.000282  -0.004099
    19  C    0.039581  -0.018893  -0.168873  -0.616361  -1.409250  -1.685843
    20  H    0.003348   0.020177   0.013752  -0.003285   0.036502  -0.051760
    21  C   -0.073409  -0.091112  -0.303524   0.287132   0.815846   1.044063
    22  N   -0.001062  -0.008533   0.009131  -0.047892   0.009642  -0.020027
    23  C   -0.091234   0.004618  -0.839396  -0.403130  -0.160241  -0.188420
    24  C    0.056130   0.106548  -0.453360   0.423564  -0.457364  -0.192218
    25  C   -0.031767   0.019510   1.044170   0.815803   0.287203  -0.303495
    26  C   -0.066952  -0.080846  -1.685818  -1.409181  -0.616345  -0.168871
    27  H    0.000423  -0.002030  -0.051759   0.036503  -0.003287   0.013752
    28  C    0.034002  -0.076039  -0.261528   0.058416   0.229061   0.171994
    29  H    0.000051  -0.000078  -0.004099  -0.000282  -0.000304   0.000036
    30  C    0.025500   0.035048  -0.447487   0.065814  -0.182263   0.004465
    31  H    0.000038   0.000048   0.001429   0.000315   0.000003  -0.000006
    32  N    0.008502   0.026990  -0.020034   0.009641  -0.047890   0.009131
    33  C   -0.040512  -0.034957  -0.154478  -0.045836  -0.030544  -0.015334
    34  H   -0.002026  -0.000493   0.019256   0.002239  -0.000572   0.000126
    35  C   -0.000003  -0.010923  -0.015333  -0.030538  -0.045845  -0.154468
    36  H    0.000000   0.000089   0.000126  -0.000572   0.002240   0.019255
    37  S    0.002675  -0.000270  -0.017842  -0.013975   0.018409   0.004259
    38  S    0.000039   0.003691   0.004259   0.018407  -0.013973  -0.017846
              7          8          9         10         11         12
     1  N   -0.062939   0.007191  -0.102299  -0.005735   0.000043   0.273933
     2  C   -0.129892  -0.062935   0.343893   0.012609   0.003574  -0.021864
     3  C    0.149616   0.048375  -0.042532   0.050686  -0.005165  -0.004103
     4  C   -1.514241  -0.261515  -0.017854  -0.072008  -0.028049   0.047144
     5  C   -0.545507  -0.201757  -0.071992  -0.017847   0.047141  -0.028055
     6  C   -0.392335   0.070088   0.050695  -0.042537  -0.004095  -0.005167
     7  C    7.656009   0.293419   0.012606   0.343911  -0.021869   0.003575
     8  N    0.293419   7.518396  -0.005735  -0.102298   0.273932   0.000043
[...]
 5336,-0.00000223,0.00000006,-0.00000068,0.00000436,0.,-0.00002974,0.00
 005663,0.00000008,0.00000085,-0.00000264,0.,0.00009782,-0.00005634,-0.
 00000003,0.00001205,0.00002986,0.00000003,-0.00489384,0.00336147,0.000
 00075,-0.00423128,-0.00097908,0.00000046,0.00105873,-0.00117292,-0.000
 00026,-0.00038828,-0.00025328,-0.00000009,0.00007328,-0.00016944,-0.00
 000002,-0.00051327,0.00037780,0.00000006,0.00015552,0.00007958,0.,0.00
 209140,0.00036177,0.00000009,0.00001580,-0.00019565,-0.00000005,-0.010
 02733,-0.03332258,-0.00000417,-0.06676698,-0.06784577,-0.00000683,0.07
 836102,-0.00010771,-0.00008330,0.00000004,0.00005822,0.00007002,-0.000
 00023,0.00011998,0.00004667,0.,-0.00012690,-0.00002749,0.00000050,-0.0
 0014952,-0.00011575,-0.00000028,0.00013316,-0.00003641,0.00000024,0.00
 013060,-0.00004538,-0.00000052,-0.00007789,0.00005643,0.00000026,0.000
 00683,-0.00009139,0.00000007,-0.00007041,0.00005573,0.00000012,0.00000
 435,-0.00000020,-0.00000005,0.00020142,-0.00003672,0.00000003,0.000022
 62,0.00001922,-0.00000021,-0.00000528,-0.00000004,0.00000022,0.0000226
 2,0.00000284,0.00000006,0.00000078,0.00000024,-0.00000003,-0.00003162,
 0.00000206,0.00000019,-0.00000053,-0.00000074,-0.00000002,0.00001728,-
 0.00003855,0.00000015,-0.00000150,-0.00000074,0.00000002,-0.00007822,0
 .00004565,-0.00000009,-0.00001367,-0.00001489,0.00000007,0.00296264,-0
 .00063661,-0.00000017,-0.00136935,0.00306676,-0.00000063,-0.00014116,-
 0.00036709,-0.00000047,-0.00030042,0.00006289,-0.00000012,0.00003585,-
 0.00001226,0.00000004,0.00014656,-0.00016357,-0.00000021,-0.00006251,-
 0.00004084,0.00000006,-0.00081576,0.00017046,0.,-0.00001369,0.00008926
 ,-0.00000004,-0.00571703,-0.00443171,0.00000072,-0.07479824,-0.3308049
 9,-0.00003734,0.08280183,0.34366831,-0.00000006,0.00000031,0.00019334,
 0.00000007,0.00000118,0.00005661,0.00000063,0.00000038,0.00001570,-0.0
 0000029,-0.00000269,-0.00005359,-0.00000130,-0.00000119,-0.00005180,0.
 00000149,-0.00000029,0.00003995,0.00000004,0.00000221,0.00000279,-0.00
 000013,0.00000065,-0.00001189,0.00000009,-0.00000053,-0.00004717,0.000
 00036,-0.00000090,-0.00000598,0.00000023,0.00000010,0.00000695,-0.0000
 0007,-0.00000005,-0.00016949,0.00000109,0.00000023,-0.00000406,-0.0000
 0063,0.00000117,-0.00000076,-0.00000117,-0.00000040,-0.00000145,0.,-0.
 00000008,0.00000135,0.00000010,0.00000086,-0.00000652,-0.00000004,0.00
 000008,0.00000267,-0.00000014,-0.00000096,0.00000450,-0.00000005,-0.00
 000008,0.00000403,0.00000063,-0.00000060,-0.00001057,-0.00000080,-0.00
 000024,-0.00000156,-0.00000018,-0.00000044,0.00008967,0.00000108,-0.00
 000055,0.00802395,-0.00000173,-0.00000012,0.00129723,-0.00000150,0.000
 00034,-0.00042620,-0.00000004,-0.00000004,-0.00007357,0.00000022,0.000
 00027,0.00039555,0.00000007,0.,-0.00035732,0.00000230,-0.00000036,0.00
 205136,-0.00000005,0.00000014,-0.00021531,-0.00000097,0.00000203,-0.00
 678513,-0.00000729,-0.00003790,-0.02126717,0.00000799,0.00003879,0.018
 08895,0.00147117,-0.00097251,-0.00000010,-0.00267724,-0.00138313,-0.00
 000133,-0.00438371,0.00072361,-0.00000049,0.00406374,0.00358836,0.0000
 1253,0.00419520,0.00282815,-0.00000497,-0.00541143,-0.00421189,0.00000
 398,-0.00259604,-0.00350279,-0.00000772,0.00153972,0.00222171,0.000001
 44,0.00042969,0.00029596,-0.00000022,0.00001991,0.00358619,0.00000128,
 -0.00608384,-0.00066026,-0.00000039,-0.00010216,-0.00000223,-0.0000000
 6,-0.03807215,-0.08049897,-0.00001326,0.00086490,0.00796002,0.00000421
 ,-0.00653520,0.00274911,-0.00000092,-0.00039998,0.00135217,0.00000095,
 -0.00326700,0.00125900,0.00000621,-0.00059291,-0.00037036,-0.00000020,
 0.00221003,-0.00446172,-0.00000084,-0.00011843,0.00030074,0.00000005,0
 .01262987,0.01034006,-0.00000046,-0.42307134,-0.11690538,0.00000418,0.
 00015113,-0.00005537,-0.00000074,-0.00080059,-0.00075201,0.00000379,0.
 00253998,-0.00149795,-0.00000565,-0.00059595,0.00130940,-0.00000126,-0
 .00002482,-0.00001776,-0.00000003,0.00113737,-0.00001485,-0.00000205,0
 .00000348,0.00005511,0.00000011,-0.00079235,-0.00009779,0.00000248,-0.
 00003222,-0.00000650,0.00000021,0.00042479,0.00064634,-0.00000013,-0.0
 0051202,-0.00064571,-0.00000306,-0.00001743,0.00001621,0.00000044,0.59
 947437,0.00174847,-0.00160282,0.00000014,-0.00240227,0.00102329,0.0000
 0083,-0.00430270,0.00192286,-0.00000048,0.00282766,0.00328946,0.000005
 00,0.00296038,0.00089846,-0.00000262,-0.00407517,-0.00082965,0.0000016
 7,-0.00190650,-0.00347454,-0.00000229,0.00279096,0.00119170,0.00000002
 ,0.00095334,-0.00148209,-0.00000044,-0.00031919,0.00352196,0.00000059,
 -0.00400830,0.00066208,0.00000014,0.00000412,0.00008040,-0.00000019,-0
 .04072948,-0.06778341,-0.00000991,-0.01623711,-0.04481663,-0.00000463,
 -0.00498631,-0.00525755,-0.00000172,0.00040556,-0.00055500,0.00000030,
 0.00423378,-0.00105789,0.00000232,0.00004063,-0.00009911,-0.00000006,-
 0.00062350,0.00120123,-0.00000071,-0.00012447,-0.00040345,-0.00000002,
 0.01117540,-0.00468455,-0.00000210,-0.11040735,-0.12353942,-0.00000368
 ,0.00009857,0.00046333,-0.00000092,-0.00088448,-0.00113046,0.00000257,
 0.00351416,-0.00190306,-0.00000267,-0.00106255,0.00189921,0.00000048,0
 .00000433,-0.00003562,-0.00000010,0.00190219,-0.00007072,-0.00000088,0
 .00001615,0.00011876,-0.00000002,-0.00139873,-0.00043786,0.00000081,-0
 .00008309,-0.00000534,0.00000022,0.00048552,0.00102937,-0.00000037,-0.
 00064909,-0.00128710,-0.00000085,-0.00003487,0.00001679,-0.00000001,0.
 19984216,0.66892560,0.00000012,-0.00000225,-0.00003872,-0.00000079,-0.
 00000372,0.00000885,-0.00000271,0.00000014,-0.00005519,0.00000311,0.00
 000578,0.00014309,0.00000409,0.00000345,0.00018530,-0.00000393,0.00000
 087,-0.00101256,-0.00000078,-0.00000522,0.00005029,0.00000029,-0.00000
 237,0.00020097,-0.00000073,0.00000250,0.00002966,-0.00000126,0.0000034
 7,-0.00000121,-0.00000055,-0.00000002,-0.00012817,0.00000009,-0.000000
 01,-0.00000316,-0.00000419,-0.00000744,0.00890097,-0.00000138,-0.00000
 864,0.00662547,0.00000078,-0.00000070,-0.00023552,0.,0.00000005,-0.000
 37060,0.00000127,-0.00000084,0.00083735,0.00000009,-0.00000013,-0.0000
 6752,-0.00000024,0.00000222,0.00045780,0.00000024,0.00000019,-0.000523
 44,0.00000122,-0.00000140,0.00291201,0.00000627,-0.00000219,-0.0512053
 8,0.00000062,0.00000021,0.00002534,-0.00000083,-0.00000082,-0.00002020
 ,0.00000295,-0.00000063,0.00002334,0.00000172,0.00000015,-0.00005933,0
 .00000027,0.00000012,-0.00000392,0.00000006,-0.00000016,0.00003508,-0.
 00000011,0.00000002,-0.00000187,-0.00000308,-0.00000011,-0.00001454,0.
 00000006,-0.00000015,-0.00000151,0.00000119,0.00000042,0.00001167,-0.0
 0000105,0.00000046,-0.00000097,-0.00000008,-0.00000029,-0.00000066,-0.
 00000154,0.00006505,0.08620743,0.00001433,-0.00005040,0.00000008,-0.00
 004618,0.00002627,-0.00000008,-0.00011940,0.00003403,0.00000004,0.0000
 2857,0.00005988,0.00000021,0.00002194,0.00004080,-0.00000029,0.0000741
 4,0.00002150,0.00000013,0.00013263,-0.00030016,-0.00000026,-0.00029361
 ,0.00002177,0.00000013,0.00000392,-0.00002946,0.00000006,-0.00003840,0
 .00023476,0.00000010,0.00030145,-0.00017159,-0.00000006,0.00000183,0.0
 0000302,-0.00000001,-0.00423105,-0.00097946,0.00000028,-0.00489400,0.0
 0336157,0.00000085,0.00209170,0.00036107,0.00000005,0.00001580,-0.0001
 9565,-0.00000008,-0.00051296,0.00037787,0.00000020,0.00015557,0.000079
 50,-0.00000002,-0.00038837,-0.00025307,0.00000005,0.00007337,-0.000169
 39,-0.00000002,0.00105800,-0.00117271,-0.00000016,-0.01002624,-0.03332
 160,-0.00000412,0.00000237,0.00000820,0.00000009,-0.00002746,-0.000033
 20,0.00000005,0.00009965,-0.00005729,-0.00000026,-0.00002962,0.0000572
 9,0.00000003,0.00000101,-0.00000260,0.00000002,0.00005359,-0.00000196,
 -0.00000008,-0.00000072,0.00000437,0.,-0.00004191,-0.00000923,0.000000
 07,-0.00000246,-0.00000031,-0.00000006,0.00001233,0.00002995,0.0000001
 4,-0.00001777,-0.00003466,-0.00000034,-0.00000109,0.00000056,0.0000001
 4,-0.06676808,-0.06784624,-0.00000675,0.07836094,-0.00007775,0.0000540
 0,0.00000001,0.00012875,-0.00004870,-0.00000030,0.00013040,-0.00003565
 ,0.00000027,-0.00014671,-0.00011189,0.00000005,-0.00012178,-0.00002371
 ,-0.00000018,0.00011722,0.00004675,0.00000006,0.00005786,0.00006588,-0
 .00000027,-0.00010818,-0.00008577,0.00000003,-0.00007133,0.00005847,0.
 00000007,0.00000552,-0.00008790,0.00000010,0.00020130,-0.00003688,0.,0
 .00000443,-0.00000018,0.,-0.00136867,0.00306578,-0.00000088,0.00296193
 ,-0.00063679,-0.00000010,-0.00081527,0.00016987,-0.00000006,-0.0000135
 3,0.00008921,-0.00000001,0.00014640,-0.00016344,-0.00000016,-0.0000624
 2,-0.00004096,0.00000004,-0.00030039,0.00006309,0.00000029,0.00003622,
 -0.00001214,0.00000002,-0.00014213,-0.00036675,-0.00000011,-0.00571506
 ,-0.00443032,0.00000064,-0.00000531,0.00000014,0.00000034,0.00002167,0
 .00001674,-0.00000008,-0.00007506,0.00004403,-0.00000027,0.00001733,-0
 .00003763,0.00000009,-0.00000108,-0.00000061,0.00000001,-0.00003063,0.
 00000295,-0.00000001,-0.00000056,-0.00000084,0.,0.00002114,0.00000265,
 -0.00000007,0.00000080,0.00000025,-0.00000007,-0.00001190,-0.00001368,
 0.00000018,0.00001445,0.00001655,-0.00000033,0.00000056,-0.00000031,0.
 00000015,-0.07479994,-0.33080589,-0.00003640,0.08280173,0.34366803,0.0
 0000009,-0.00000030,-0.00001188,-0.00000034,0.00000009,0.00000226,-0.0
 0000020,0.00000061,0.00004010,0.00000008,-0.00000121,-0.00005357,0.000
 00020,-0.00000003,-0.00005210,0.00000046,-0.00000019,0.00001583,0.0000
 0016,0.00000053,0.00005684,-0.00000025,-0.00000017,0.00019355,-0.00000
 009,0.00000018,-0.00000576,-0.00000006,0.00000025,-0.00004723,0.000000
 13,0.00000007,-0.00016954,-0.00000004,-0.00000006,0.00000694,0.0000011
 9,-0.00000068,0.00802522,0.00000013,0.00000069,0.00008980,-0.00000086,
 -0.00000076,0.00205135,-0.00000002,-0.00000001,-0.00021540,0.00000031,
 0.00000052,0.00039506,-0.00000004,0.00000007,-0.00035734,-0.00000007,-
 0.00000059,-0.00042582,0.,-0.00000004,-0.00007360,0.00000005,-0.000000
 39,0.00129610,-0.00000074,0.00000209,-0.00678507,-0.00000054,-0.000000
 46,-0.00000045,0.00000018,-0.00000036,-0.00000555,-0.00000019,-0.00000
 044,-0.00000986,-0.00000100,0.00000065,0.00000444,0.00000003,-0.000000
 02,0.00000407,0.00000035,0.00000041,-0.00000598,0.00000006,0.,0.000002
 66,0.00000140,0.00000010,-0.00000148,-0.00000006,0.00000007,0.00000131
 ,-0.00000012,0.00000015,-0.00000143,0.00000009,-0.00000042,-0.00000069
 ,0.00000003,0.00000011,0.00000092,-0.00000746,-0.00003682,-0.02126779,
 0.00000785,0.00003801,0.01808921,-0.00269214,0.00039821,0.00000072,0.0
 0197429,-0.00092979,0.00000116,0.00181732,0.00003015,-0.00000132,-0.00
 136920,-0.00035160,0.00000082,-0.00065552,-0.00075785,-0.00000104,-0.0
 0006013,0.00032812,0.00000024,0.00041439,0.00085361,0.00000073,-0.0002
 3858,-0.00027772,-0.00000017,-0.00047460,0.00061574,0.00000009,-0.0000
 8533,-0.00057424,-0.00000027,0.00008612,0.00004584,0.00000003,0.002240
 90,-0.00070055,-0.00000035,-0.00004650,-0.00014524,0.00000004,-0.00002
 052,0.00021958,0.00000041,-0.00026988,-0.00013504,-0.00000095,-0.00002
 731,0.00000065,0.00000003,0.00032578,-0.00003980,0.00000106,0.00000065
 ,0.00003560,0.,-0.00021428,0.00026352,-0.00000093,0.00005295,-0.000008
 80,0.,0.00044698,-0.00019731,-0.00000043,-0.00003879,0.00014144,-0.000
 00014,-0.11206701,-0.02001311,0.00000020,-0.03546704,0.00928874,0.0000
 0433,-0.00752271,-0.00199559,0.,-0.00550150,0.00582395,0.00000131,0.00
 015051,0.00004383,0.,0.01243399,0.00387301,-0.00000026,0.00047073,0.00
 029059,0.,-0.00026249,-0.02254590,-0.00000250,0.00073609,0.00010225,-0
 .00000005,-0.07890184,-0.00387569,0.00000416,-0.06830182,0.02933260,0.
 00000608,0.00494363,-0.00279907,-0.00000069,0.00000111,-0.00025502,-0.
 00000011,-0.00000750,-0.00000102,-0.00000009,0.28826152,0.00151962,0.0
 0005235,-0.00000005,-0.00096967,0.00073910,-0.00000086,0.00014500,-0.0
 0178555,0.00000066,0.00028756,0.00065693,-0.00000067,0.00019814,0.0000
 2724,-0.00000010,0.00016545,-0.00033268,-0.00000008,0.00052870,-0.0011
 1767,-0.00000067,-0.00024346,0.00049272,0.00000034,0.00031995,-0.00035
 027,0.00000017,-0.00057043,0.00082553,0.00000044,-0.00001475,-0.000013
 57,-0.00000002,-0.00194294,0.00018608,0.00000008,0.00006594,0.00010587
 ,-0.00000043,0.00000148,-0.00010700,0.00000015,0.00017285,0.00007612,0
 .00000069,0.00001495,0.00000111,-0.00000023,-0.00022483,0.00002755,-0.
 00000072,-0.00000537,-0.00001482,-0.00000002,0.00012974,-0.00020854,0.
 00000083,-0.00005173,-0.00000467,0.00000005,-0.00036627,0.00020641,0.0
 0000037,-0.00002866,-0.00009930,0.00000009,-0.06083340,-0.08523322,-0.
 00000349,-0.02703585,-0.00349718,-0.00000008,0.00102122,0.00086343,-0.
 00000081,-0.00233291,-0.00025261,0.00000037,0.00022745,0.00027555,0.00
 000010,0.00543426,-0.00220765,-0.00000084,-0.00126391,-0.00050555,-0.0
 0000011,-0.02858527,-0.01737379,-0.00000123,0.00020768,0.00112471,0.00
 000005,0.04122742,-0.00881413,-0.00000534,0.05171973,-0.09514801,-0.00
 001205,0.01709925,-0.01042482,-0.00000162,0.00006076,0.00016603,-0.000
 00038,0.00000565,0.00000011,0.00000029,0.00386241,0.22167974,0.0000003
 0,0.00000208,-0.00042484,0.00000040,0.00000321,-0.00012307,0.00000203,
 -0.00000094,0.00082831,-0.00000238,-0.00000274,-0.00031767,-0.00000281
 ,-0.00000255,0.00006733,0.00000203,-0.00000049,-0.00002848,0.00000034,
 0.00000314,0.00003792,0.00000025,0.00000211,0.00000211,0.00000085,-0.0
 0000248,-0.00001760,0.00000096,-0.00000272,-0.00000676,0.00000008,0.00
 000006,-0.00000213,-0.00000035,0.00000006,0.00065278,0.00000018,0.0000
 0136,0.00000044,0.00000023,-0.00000013,-0.00001485,0.00000004,0.000000
 62,0.00000643,0.00000004,-0.00000002,0.00000083,-0.00000079,-0.0000003
 3,-0.00002128,-0.00000003,0.00000008,0.00000230,0.00000006,-0.00000072
 ,0.00003450,-0.00000020,-0.00000007,0.00000338,-0.00000036,0.00000022,
 0.00000687,-0.00000136,-0.00000109,0.00000505,-0.00000379,-0.00000621,
 -0.02838551,-0.00000142,-0.00000016,0.00105160,-0.00000073,0.00000036,
 0.00376556,-0.00000048,-0.00000076,-0.00100114,-0.00000021,0.,-0.00021
 958,0.00000012,-0.00000118,0.00297288,-0.00000013,-0.00000021,0.000896
 16,-0.00000325,-0.00000130,-0.00017458,-0.00000006,0.00000036,-0.00152
 454,0.00000957,-0.00000414,0.02134557,0.00000944,-0.00001003,-0.031638
 86,0.00000199,-0.00000101,-0.00078686,0.00000120,0.00000055,-0.0000037
 3,0.00000006,-0.00000002,0.00000190,-0.00001203,0.00002496,0.03300315,
 -0.00023769,-0.00027810,0.00000054,0.00041489,0.00085292,0.00000106,-0
 .00006053,0.00032755,-0.00000077,-0.00065626,-0.00075725,0.00000040,-0
 .00136945,-0.00035099,-0.00000107,0.00181834,0.00003180,0.00000010,0.0
 0197464,-0.00093182,0.00000023,-0.00269300,0.00039749,0.00000010,-0.00
 008543,-0.00057399,0.,-0.00047518,0.00061728,0.00000004,0.00224137,-0.
 00070020,-0.00000015,0.00008574,0.00004548,-0.00000016,-0.03546933,0.0
 0928780,0.00000271,-0.11206668,-0.02000923,0.00000177,-0.00026261,-0.0
 2254870,-0.00000359,0.00073607,0.00010225,-0.00000017,0.01243504,0.003
 87368,0.00000081,0.00047075,0.00029043,0.00000004,-0.00550084,0.005822
 42,0.00000036,0.00015050,0.00004388,0.,-0.00752241,-0.00199605,0.00000
 006,-0.07890162,-0.00387568,0.00000428,-0.00002150,0.00021656,-0.00000
 061,-0.00004387,-0.00014464,0.00000106,0.00044736,-0.00019629,-0.00000
 052,-0.00021491,0.00026472,0.00000053,0.00005295,-0.00000886,0.0000000
 2,0.00032489,-0.00004064,-0.00000027,0.00000065,0.00003587,-0.00000005
 ,-0.00027049,-0.00013262,0.00000025,-0.00002727,0.00000063,-0.00000005
 ,-0.00003961,0.00014048,-0.00000001,0.00000207,-0.00025535,-0.00000036
 ,-0.00000748,-0.00000105,0.00000016,-0.06830162,0.02933288,0.00000567,
 0.00494371,-0.00279900,-0.00000059,-0.00013233,0.00005425,0.00000020,0
 .28826109,-0.00024255,0.00049556,0.00000006,0.00052940,-0.00111283,-0.
 00000046,0.00017009,-0.00033124,-0.00000007,0.00018963,0.00002127,0.00
 000052,0.00028332,0.00065105,-0.00000003,0.00014964,-0.00178754,-0.000
 00006,-0.00096524,0.00074305,-0.00000045,0.00151882,0.00005549,0.00000
 030,-0.00056854,0.00082093,0.00000023,0.00032062,-0.00035264,0.0000000
 6,-0.00194318,0.00018612,0.,-0.00001422,-0.00001340,0.00000005,-0.0270
 3334,-0.00349444,0.00000066,-0.06083366,-0.08523209,-0.00000444,-0.028
 58320,-0.01737447,-0.00000071,0.00020762,0.00112470,0.00000028,0.00543
 376,-0.00220881,-0.00000080,-0.00126383,-0.00050546,-0.00000014,-0.002
 33301,-0.00025428,0.00000043,0.00022669,0.00027527,0.00000007,0.001014
 21,0.00086736,-0.00000058,0.04122532,-0.00881508,-0.00000578,0.0000025
 7,-0.00010657,0.00000004,0.00006365,0.00010820,-0.00000026,-0.00036503
 ,0.00020578,-0.00000006,0.00013067,-0.00020940,-0.00000043,-0.00005230
 ,-0.00000489,0.00000007,-0.00022573,0.00002732,-0.00000014,-0.00000554
 ,-0.00001456,0.00000003,0.00017367,0.00007773,0.00000032,0.00001484,0.
 00000108,-0.00000009,-0.00003377,-0.00010345,0.00000020,0.00006605,0.0
 0016824,-0.00000043,0.00000579,0.00000048,0.00000017,0.05172205,-0.095
 14841,-0.00001122,0.01709920,-0.01042446,-0.00000193,0.00005351,-0.000
 01555,0.00000011,0.00386205,0.22167991,-0.00000059,0.00000103,0.000001
 83,0.00000189,0.00000046,0.00003786,0.00000151,-0.00000134,-0.00002841
 ,0.00000003,-0.00000070,0.00006776,-0.00000364,-0.00000163,-0.00031721
 ,0.00000175,0.00000033,0.00082840,-0.00000054,0.00000155,-0.00012326,0
 .00000086,0.00000112,-0.00042506,0.00000004,-0.00000043,-0.00000695,0.
 00000062,-0.00000162,-0.00001769,-0.00000023,0.00000007,0.00065275,0.0
 0000004,-0.00000002,-0.00000213,-0.00000234,-0.00000069,0.00105160,-0.
 00000372,-0.00000662,-0.02838558,-0.00000350,-0.00000082,-0.00017481,-
 0.00000008,0.00000036,-0.00152435,-0.00000007,-0.00000104,0.00297311,-
 0.00000018,-0.00000017,0.00089618,-0.00000010,0.00000011,-0.00100131,-
 0.00000013,0.00000006,-0.00021964,0.00000194,-0.00000070,0.00376534,0.
 00000897,-0.00000474,0.02134568,0.00000003,0.00000119,-0.00001495,0.00
 000101,0.00000118,0.00000050,-0.00000375,0.00000213,0.00000693,0.00000
 077,-0.00000190,0.00003446,-0.00000015,-0.00000007,0.00000330,-0.00000
 114,-0.00000069,-0.00002110,0.,-0.00000002,0.00000229,0.00000049,-0.00
 000019,0.00000633,0.00000018,-0.00000010,0.00000103,-0.00000057,-0.000
 00060,0.00000467,0.00000087,0.00000006,-0.00000313,0.00000002,0.,0.000
 00155,0.00000983,-0.00000923,-0.03163863,0.00000195,-0.00000102,-0.000
 78702,-0.00000007,0.00000017,0.00000639,-0.00001199,0.00002450,0.03300
 324||-0.00000050,-0.00000043,-0.00000007,-0.00000051,0.00000041,0.0000
 0028,0.00000072,0.00000197,-0.00000010,-0.00000162,0.00000021,0.000000
 13,0.00000162,-0.00000021,0.00000009,-0.00000072,-0.00000197,-0.000000
 33,0.00000051,-0.00000041,-0.00000039,0.00000050,0.00000043,0.00000027
 ,-0.00000043,-0.00000017,-0.00000007,0.00000043,0.00000017,0.00000014,
 0.00000051,-0.00000070,0.00000005,-0.00000051,0.00000070,0.00000002,0.
 00000001,-0.00000128,-0.00000008,0.00000035,-0.00000116,0.00000012,-0.
 00000042,-0.00000162,0.00000001,-0.00000049,-0.00000146,-0.00000001,-0
 .00000100,-0.00000103,0.,-0.00000096,-0.00000112,-0.00000002,-0.000000
 04,-0.00000090,0.00000015,-0.00000083,-0.00000071,-0.00000010,-0.00000
 063,-0.00000004,-0.00000007,0.00000013,-0.00000100,-0.00000003,-0.0000
 0035,0.00000116,-0.00000003,-0.00000001,0.00000128,0.00000009,0.000000
 64,0.00000004,0.00000003,0.00000004,0.00000091,0.,0.00000083,0.0000007
 2,0.,0.00000100,0.00000103,0.00000001,0.00000096,0.00000112,0.,0.00000
 042,0.00000162,0.,0.00000049,0.00000146,0.,-0.00000013,0.00000100,-0.0
 0000013,-0.00000053,0.00000128,0.00000008,-0.00000073,0.00000149,0.,0.
 00000053,-0.00000128,0.00000011,0.00000073,-0.00000149,0.,-0.00000015,
 0.00000192,-0.00000002,0.00000016,-0.00000192,-0.00000012|||@


 ALMOST ALL THE CHEMICAL PROCESSES WHICH OCCUR IN NATURE,
 WHETHER IN ANIMAL OR VEGETABLE ORGANISMS,
 OR IN THE NON-LIVING SURFACE OF THE EARTH ... 
 TAKE PLACE BETWEEN SUBSTANCES IN SOLUTION

                                    -- W. OSTWALD, 1890
 Job cpu time:  0 days  8 hours 25 minutes 53.0 seconds.
 File lengths (MBytes):  RWF=   2485 Int=      0 D2E=      0 Chk=     30 Scr=      1
 Normal termination of Gaussian 09 at Fri Oct 06 21:11:54 2023.
