 Entering Gaussian System, Link 0=g09
 Initial command:
 /apps/software//g09/l1.exe /scratch/nathalia.rosa/82236.cluster.abaxnet/Gau-12304.inp -scrdir=/scratch/nathalia.rosa/82236.cluster.abaxnet/
 Entering Link 1 = /apps/software//g09/l1.exe PID=     12305.
  
 Copyright (c) 1988,1990,1992,1993,1995,1998,2003,2009, Gaussian, Inc.
                  All Rights Reserved.
  
 This is part of the Gaussian(R) 09 program.  It is based on
 the Gaussian(R) 03 system (copyright 2003, Gaussian, Inc.),
 the Gaussian(R) 98 system (copyright 1998, Gaussian, Inc.),
 the Gaussian(R) 94 system (copyright 1995, Gaussian, Inc.),
 the Gaussian 92(TM) system (copyright 1992, Gaussian, Inc.),
 the Gaussian 90(TM) system (copyright 1990, Gaussian, Inc.),
 the Gaussian 88(TM) system (copyright 1988, Gaussian, Inc.),
 the Gaussian 86(TM) system (copyright 1986, Carnegie Mellon
 University), and the Gaussian 82(TM) system (copyright 1983,
 Carnegie Mellon University). Gaussian is a federally registered
 trademark of Gaussian, Inc.
  
 This software contains proprietary and confidential information,
 including trade secrets, belonging to Gaussian, Inc.
  
 This software is provided under written license and may be
 used, copied, transmitted, or stored only in accord with that
 written license.
  
 The following legend is applicable only to US Government
 contracts under FAR:
  
                    RESTRICTED RIGHTS LEGEND
  
 Use, reproduction and disclosure by the US Government is
 subject to restrictions as set forth in subparagraphs (a)
 and (c) of the Commercial Computer Software - Restricted
 Rights clause in FAR 52.227-19.
  
 Gaussian, Inc.
 340 Quinnipiac St., Bldg. 40, Wallingford CT 06492
  
  
 ---------------------------------------------------------------
 Warning -- This program may not be used in any manner that
 competes with the business of Gaussian, Inc. or will provide
 assistance to any competitor of Gaussian, Inc.  The licensee
 of this program is prohibited from giving any competitor of
 Gaussian, Inc. access to this program.  By using this program,
 the user acknowledges that Gaussian, Inc. is engaged in the
 business of creating and licensing software in the field of
 computational chemistry and represents and warrants to the
 licensee that it is not a competitor of Gaussian, Inc. and that
 it will not use this program in any manner prohibited above.
 ---------------------------------------------------------------
  

 Cite this work as:
 Gaussian 09, Revision A.02,
 M. J. Frisch, G. W. Trucks, H. B. Schlegel, G. E. Scuseria, 
 M. A. Robb, J. R. Cheeseman, G. Scalmani, V. Barone, B. Mennucci, 
 G. A. Petersson, H. Nakatsuji, M. Caricato, X. Li, H. P. Hratchian, 
 A. F. Izmaylov, J. Bloino, G. Zheng, J. L. Sonnenberg, M. Hada, 
 M. Ehara, K. Toyota, R. Fukuda, J. Hasegawa, M. Ishida, T. Nakajima, 
 Y. Honda, O. Kitao, H. Nakai, T. Vreven, J. A. Montgomery, Jr., 
 J. E. Peralta, F. Ogliaro, M. Bearpark, J. J. Heyd, E. Brothers, 
 K. N. Kudin, V. N. Staroverov, R. Kobayashi, J. Normand, 
 K. Raghavachari, A. Rendell, J. C. Burant, S. S. Iyengar, J. Tomasi, 
 M. Cossi, N. Rega, J. M. Millam, M. Klene, J. E. Knox, J. B. Cross, 
 V. Bakken, C. Adamo, J. Jaramillo, R. Gomperts, R. E. Stratmann, 
 O. Yazyev, A. J. Austin, R. Cammi, C. Pomelli, J. W. Ochterski, 
 R. L. Martin, K. Morokuma, V. G. Zakrzewski, G. A. Voth, 
 P. Salvador, J. J. Dannenberg, S. Dapprich, A. D. Daniels, 
 O. Farkas, J. B. Foresman, J. V. Ortiz, J. Cioslowski, 
 and D. J. Fox, Gaussian, Inc., Wallingford CT, 2009.
 
 ******************************************
 Gaussian 09:  EM64L-G09RevA.02 11-Jun-2009
                30-Aug-2023 
 ******************************************
 %mem=6GB
 %chk=/home/nathalia.rosa/DPP-SUB/DPP-SUB-8/DPP-SUB-8-TD-DFT.chk
 ---------------------------------------------------------
 # td=(nstates=10) cam-b3lyp/6-31+g(d,p) geom=connectivity
 ---------------------------------------------------------
 1/38=1,57=2/1;
 2/12=2,17=6,18=5,40=1/2;
 3/5=1,6=6,7=111,11=2,16=1,25=1,30=1,74=-40/1,2,8,3;
 4//1;
 5/5=2,38=5/2;
 8/6=1,10=2,108=10/1;
 9/41=10,42=1/14;
 6/7=2,8=2,9=2,10=2/1;
 99/5=1,9=1/99;
 -------
 Energy:
 -------
 Symbolic Z-matrix:
 Charge =  0 Multiplicity = 1
 N                     1.57277   1.42665   0.00015 
 C                     0.21161   1.80416   0.00028 
 C                     1.75511   0.0528   -0.00004 
 C                     0.48872  -0.52241  -0.00003 
 C                    -0.48872   0.52241   0.00016 
 C                    -1.75511  -0.0528    0.00011 
 C                    -0.21161  -1.80416  -0.0002 
 N                    -1.57278  -1.42665  -0.00013 
 O                    -0.17559   2.97158   0.00044 
 O                     0.17558  -2.97158  -0.0004 
 H                    -2.34793  -2.08224  -0.00016 
 H                     2.34792   2.08225   0.00017 
 C                    -4.27762  -0.19449   0.00018 
 C                    -5.52795   0.46923   0.00032 
 C                    -5.62777   1.86339   0.0005 
 H                    -6.5926    2.35977   0.00061 
 C                    -4.44189   2.59563   0.00057 
 H                    -4.48341   3.68029   0.00071 
 C                    -3.1913    1.96481   0.00044 
 H                    -2.2888    2.56979   0.0005 
 C                    -3.07331   0.56369   0.00024 
 N                    -4.36056  -1.58109  -0.00001 
 C                     5.52795  -0.46924  -0.00036 
 C                     4.27762   0.19449  -0.0002 
 C                     3.07332  -0.56369  -0.00021 
 C                     3.1913   -1.96481  -0.00039 
 H                     2.2888   -2.56979  -0.00041 
 C                     4.44189  -2.59563  -0.00055 
 H                     4.4834   -3.68029  -0.00068 
 C                     5.62777  -1.86339  -0.00053 
 H                     6.5926   -2.35977  -0.00066 
 N                     4.36056   1.58109  -0.00003 
 C                     5.59476   1.97694  -0.00006 
 H                     5.88842   3.02034   0.00005 
 C                    -5.59476  -1.97694  -0.00001 
 H                    -5.88841  -3.02034  -0.00014 
 S                     6.81651   0.71957  -0.0003 
 S                    -6.8165   -0.71957   0.0002 
 
                          Input orientation:                          
 ---------------------------------------------------------------------
 Center     Atomic      Atomic             Coordinates (Angstroms)
 Number     Number       Type             X           Y           Z
 ---------------------------------------------------------------------
      1          7           0        1.572774    1.426647    0.000154
      2          6           0        0.211608    1.804155    0.000284
      3          6           0        1.755108    0.052801   -0.000043
      4          6           0        0.488716   -0.522410   -0.000031
      5          6           0       -0.488716    0.522410    0.000158
      6          6           0       -1.755108   -0.052799    0.000107
      7          6           0       -0.211611   -1.804155   -0.000198
      8          7           0       -1.572776   -1.426646   -0.000128
      9          8           0       -0.175588    2.971583    0.000439
     10          8           0        0.175583   -2.971583   -0.000396
     11          1           0       -2.347925   -2.082243   -0.000161
     12          1           0        2.347921    2.082247    0.000168
     13          6           0       -4.277623   -0.194490    0.000184
     14          6           0       -5.527948    0.469234    0.000315
     15          6           0       -5.627766    1.863388    0.000503
     16          1           0       -6.592602    2.359772    0.000609
     17          6           0       -4.441888    2.595629    0.000567
     18          1           0       -4.483405    3.680291    0.000713
     19          6           0       -3.191304    1.964808    0.000439
     20          1           0       -2.288805    2.569790    0.000495
     21          6           0       -3.073314    0.563692    0.000244
     22          7           0       -4.360561   -1.581086   -0.000005
     23          6           0        5.527950   -0.469235   -0.000358
     24          6           0        4.277624    0.194491   -0.000198
     25          6           0        3.073315   -0.563691   -0.000213
     26          6           0        3.191304   -1.964807   -0.000391
     27          1           0        2.288805   -2.569788   -0.000408
     28          6           0        4.441887   -2.595628   -0.000549
     29          1           0        4.483403   -3.680290   -0.000681
     30          6           0        5.627765   -1.863388   -0.000531
     31          1           0        6.592600   -2.359774   -0.000660
     32          7           0        4.360564    1.581086   -0.000029
     33          6           0        5.594763    1.976935   -0.000064
     34          1           0        5.888415    3.020338    0.000049
     35          6           0       -5.594761   -1.976935   -0.000005
     36          1           0       -5.888410   -3.020339   -0.000141
     37         16           0        6.816507    0.719567   -0.000297
     38         16           0       -6.816504   -0.719570    0.000199
 ---------------------------------------------------------------------
                    Distance matrix (angstroms):
                    1          2          3          4          5
     1  N    0.000000
     2  C    1.412546   0.000000
     3  C    1.385893   2.334445   0.000000
     4  C    2.230248   2.343010   1.390905   0.000000
     5  C    2.251085   1.460590   2.292439   1.430742   0.000000
     6  C    3.641917   2.704857   3.511804   2.292440   1.390904
     7  C    3.690814   3.633045   2.704860   1.460592   2.343009
     8  N    4.246854   3.690813   3.641919   2.251087   2.230248
     9  O    2.333152   1.229963   3.499554   3.556584   2.469109
    10  O    4.614821   4.775874   3.412008   2.469109   3.556583
    11  H    5.261577   4.653525   4.625288   3.237223   3.200137
    12  H    1.015216   2.154337   2.114256   3.200138   3.237221
    13  C    6.070851   4.914039   6.037797   4.777606   3.856133
    14  C    7.164977   5.892751   7.294952   6.097836   5.039513
    15  C    7.213773   5.839674   7.601648   6.565317   5.311126
    16  H    8.218521   6.826858   8.660622   7.645393   6.374427
    17  C    6.127208   4.720324   6.698413   5.833783   4.463833
    18  H    6.461905   5.055990   7.216490   6.510352   5.092127
    19  C    4.794378   3.406702   5.303090   4.441711   3.063412
    20  H    4.027228   2.615007   4.763241   4.156480   2.726185
    21  C    4.725550   3.511333   4.855375   3.723933   2.584928
    22  N    6.652137   5.688988   6.330165   4.963495   4.406345
    23  C    4.386090   5.782023   3.808787   5.039515   6.097838
    24  C    2.972276   4.373043   2.526492   3.856134   4.777607
    25  C    2.492603   3.714305   1.455243   2.584929   3.723933
    26  C    3.757872   4.804546   2.476570   3.063412   4.441711
    27  H    4.060073   4.842120   2.676342   2.726184   4.156478
    28  C    4.940699   6.103552   3.772659   4.463832   5.833782
    29  H    5.878143   6.951789   4.623804   5.092124   6.510350
    30  C    5.221808   6.541072   4.320793   5.311125   6.565316
    31  H    6.287737   7.619407   5.405724   6.374426   7.645392
    32  N    2.792065   4.154948   3.020605   4.406348   4.963498
    33  C    4.059460   5.385927   4.294792   5.684931   6.254947
    34  H    4.600501   5.805621   5.088271   6.458159   6.848901
    35  C    7.934603   6.928965   7.624985   6.254945   5.684929
    36  H    8.685905   7.777272   8.238177   6.848897   6.458155
    37  S    5.291191   6.693357   5.105128   6.448523   7.307883
    38  S    8.659459   7.467499   8.606340   7.307880   6.448520
                    6          7          8          9         10
     6  C    0.000000
     7  C    2.334444   0.000000
     8  N    1.385893   1.412545   0.000000
     9  O    3.412004   4.775874   4.614819   0.000000
    10  O    3.499553   1.229962   2.333150   5.953532   0.000000
    11  H    2.114255   2.154338   1.015216   5.500928   2.675634
    12  H    4.625286   4.653528   5.261577   2.675634   5.500932
    13  C    2.526491   4.373040   2.972273   5.181767   5.248170
    14  C    3.808785   5.782018   4.386086   5.908427   6.661043
    15  C    4.320793   6.541071   5.221807   5.563663   7.553529
    16  H    5.405724   7.619405   6.287735   6.446114   8.615781
    17  C    3.772659   6.103552   4.940698   4.282833   7.232903
    18  H    4.623804   6.951789   5.878143   4.365725   8.121182
    19  C    2.476570   4.804545   3.757871   3.179330   5.975273
    20  H    2.676342   4.842120   4.060074   2.151075   6.064654
    21  C    1.455242   3.714303   2.492601   3.767593   4.801406
    22  N    3.020604   4.154942   2.792060   6.183914   4.744479
    23  C    7.294954   5.892756   7.164981   6.661049   5.908433
    24  C    6.037798   4.914043   6.070854   5.248175   5.181772
    25  C    4.855376   3.511337   4.725553   4.801410   3.767598
    26  C    5.303090   3.406705   4.794380   5.975275   3.179335
    27  H    4.763241   2.615009   4.027230   6.064654   2.151080
    28  C    6.698412   4.720326   6.127209   7.232905   4.282837
    29  H    7.216489   5.055990   6.461905   8.121183   4.365728
    30  C    7.601648   5.839676   7.213774   7.553532   5.563666
    31  H    8.660621   6.826859   8.218521   8.615784   6.446116
    32  N    6.330168   5.688993   6.652141   4.744487   6.183920
    33  C    7.624987   6.928970   7.934606   5.855448   7.338620
    34  H    8.238180   7.777278   8.685910   6.064199   8.278863
    35  C    4.294792   5.385922   4.059456   7.338615   5.855441
    36  H    5.088269   5.805614   4.600495   8.278856   6.064189
    37  S    8.606343   7.467504   8.659463   7.345813   7.597793
    38  S    5.105126   6.693350   5.291185   7.597788   7.345804
                   11         12         13         14         15
    11  H    0.000000
    12  H    6.276460   0.000000
    13  C    2.699508   7.005809   0.000000
    14  C    4.077080   8.039348   1.415571   0.000000
    15  C    5.130825   7.978689   2.461249   1.397723   0.000000
    16  H    6.144004   8.944829   3.447228   2.169706   1.085037
    17  C    5.125151   6.809190   2.794950   2.387694   1.393730
    18  H    6.145492   7.015751   3.880242   3.376678   2.147254
    19  C    4.133994   5.540470   2.417159   2.774283   2.438572
    20  H    4.652409   4.662288   3.405384   3.860619   3.412867
    21  C    2.743567   5.629902   1.423095   2.456451   2.866084
    22  N    2.074093   7.643542   1.389074   2.359365   3.670178
    23  C    8.039353   4.077088   9.809421  11.095657  11.396979
    24  C    7.005813   2.699514   8.564085   9.809420  10.044997
    25  C    5.629906   2.743571   7.360204   8.663063   9.033245
    26  C    5.540474   4.133998   7.675864   9.052619   9.614108
    27  H    4.662292   4.652411   6.982837   8.386733   9.073321
    28  C    6.809193   5.125154   9.044076  10.430292  11.012753
    29  H    7.015753   6.145496   9.429018  10.837237  11.531180
    30  C    7.978692   5.130830  10.044995  11.396976  11.856468
    31  H    8.944832   6.144009  11.083781  12.446324  12.929518
    32  N    7.643547   2.074101   8.818784   9.950823   9.992319
    33  C    8.919822   3.248549  10.108367  11.224431  11.223103
    34  H    9.688840   3.662665  10.662244  11.697926  11.574150
    35  C    3.248543   8.919818   2.216295   2.447081   3.840465
    36  H    3.662657   9.688835   3.252700   3.508141   4.890677
    37  S    9.583160   4.671740  11.131721  12.346993  12.496730
    38  S    4.671732   9.583155   2.592610   1.753178   2.843373
                   16         17         18         19         20
    16  H    0.000000
    17  C    2.163608   0.000000
    18  H    2.488470   1.085456   0.000000
    19  C    3.424153   1.400677   2.147652   0.000000
    20  H    4.308918   2.153238   2.459569   1.086512   0.000000
    21  C    3.951113   2.449850   3.420752   1.406075   2.154039
    22  N    4.529058   4.177507   5.262811   3.733701   4.639175
    23  C   12.446327  10.430295  10.837241   9.052622   8.386736
    24  C   11.083783   9.044078   9.429021   7.675865   6.982839
    25  C   10.098346   8.152275   8.666914   6.755646   6.210558
    26  C   10.697046   8.891749   9.527239   7.495303   7.112958
    27  H   10.157753   8.484324   9.215548   7.112957   6.882570
    28  C   12.096113  10.289344  10.910912   8.891748   8.484324
    29  H   12.615872  10.910911  11.600940   9.527238   9.215547
    30  C   12.929519  11.012754  11.531181   9.614108   9.073321
    31  H   14.004416  12.096113  12.615874  10.697046  10.157754
    32  N   10.980810   8.860726   9.089689   7.561610   6.722473
    33  C   12.193376  10.055702  10.221100   8.786075   7.905828
    34  H   12.498485  10.339030  10.392795   9.140867   8.189623
    35  C    4.450024   4.715661   5.765355   4.616703   5.621570
    36  H    5.426000   5.799269   6.846348   5.667987   6.648812
    37  S   13.509052  11.413635  11.681348  10.084984   9.291396
    38  S    3.087471   4.077909   4.980173   4.510871   5.596423
                   21         22         23         24         25
    21  C    0.000000
    22  N    2.501415   0.000000
    23  C    8.663064   9.950822   0.000000
    24  C    7.360204   8.818782   1.415573   0.000000
    25  C    6.249163   7.503173   2.456452   1.423095   0.000000
    26  C    6.755646   7.561607   2.774284   2.417159   1.406075
    27  H    6.210557   6.722470   3.860620   3.405384   2.154038
    28  C    8.152273   8.860722   2.387693   2.794950   2.449848
    29  H    8.666912   9.089684   3.376678   3.880241   3.420751
    30  C    9.033244   9.992315   1.397722   2.461249   2.866082
    31  H   10.098344  10.980806   2.169704   3.447228   3.951111
    32  N    7.503175   9.276710   2.359366   1.389073   2.501415
    33  C    8.782529  10.572038   2.447082   2.216295   3.579453
    34  H    9.292346  11.234528   3.508141   3.252700   4.557417
    35  C    3.579453   1.296127  11.224431  10.108367   8.782528
    36  H    4.557416   2.098993  11.697923  10.662241   9.292343
    37  S    9.891049  11.411391   1.753177   2.592611   3.957049
    38  S    3.957048   2.602665  12.346992  11.131720   9.891047
                   26         27         28         29         30
    26  C    0.000000
    27  H    1.086511   0.000000
    28  C    1.400676   2.153237   0.000000
    29  H    2.147650   2.459568   1.085456   0.000000
    30  C    2.438571   3.412866   1.393730   2.147253   0.000000
    31  H    3.424151   4.308916   2.163607   2.488468   1.085037
    32  N    3.733701   4.639175   4.177506   5.262810   3.670177
    33  C    4.616703   5.621570   4.715661   5.765355   3.840465
    34  H    5.667987   6.648812   5.799269   6.846348   4.890677
    35  C    8.786073   7.905826  10.055699  10.221096  11.223100
    36  H    9.140862   8.189618  10.339024  10.392788  11.574145
    37  S    4.510871   5.596422   4.077909   4.980172   2.843372
    38  S   10.084981   9.291392  11.413631  11.681342  12.496726
                   31         32         33         34         35
    31  H    0.000000
    32  N    4.529058   0.000000
    33  C    4.450025   1.296126   0.000000
    34  H    5.426001   2.098994   1.083938   0.000000
    35  C   12.193373  10.572039  11.867541  12.523421   0.000000
    36  H   12.498478  11.234526  12.523418  13.235686   1.083938
    37  S    3.087471   2.602666   1.753178   2.480908  12.700815
    38  S   13.509047  11.411392  12.700814  13.243937   1.753175
                   36         37         38
    36  H    0.000000
    37  S   13.243935   0.000000
    38  S    2.480906  13.708760   0.000000
 Stoichiometry    C20H10N4O2S2
 Framework group  C1[X(C20H10N4O2S2)]
 Deg. of freedom   108
 Full point group                 C1      NOp   1
 Largest Abelian subgroup         C1      NOp   1
 Largest concise Abelian subgroup C1      NOp   1
                         Standard orientation:                         
 ---------------------------------------------------------------------
 Center     Atomic      Atomic             Coordinates (Angstroms)
 Number     Number       Type             X           Y           Z
 ---------------------------------------------------------------------
      1          7           0        1.572774    1.426647    0.000154
      2          6           0        0.211608    1.804155    0.000284
      3          6           0        1.755108    0.052801   -0.000043
      4          6           0        0.488716   -0.522410   -0.000031
      5          6           0       -0.488716    0.522410    0.000158
      6          6           0       -1.755108   -0.052799    0.000107
      7          6           0       -0.211611   -1.804155   -0.000198
      8          7           0       -1.572776   -1.426646   -0.000128
      9          8           0       -0.175588    2.971583    0.000439
     10          8           0        0.175583   -2.971583   -0.000396
     11          1           0       -2.347925   -2.082243   -0.000161
     12          1           0        2.347921    2.082247    0.000168
     13          6           0       -4.277623   -0.194490    0.000184
     14          6           0       -5.527948    0.469234    0.000315
     15          6           0       -5.627766    1.863388    0.000503
     16          1           0       -6.592602    2.359772    0.000609
     17          6           0       -4.441888    2.595629    0.000567
     18          1           0       -4.483405    3.680291    0.000713
     19          6           0       -3.191304    1.964808    0.000439
     20          1           0       -2.288805    2.569790    0.000495
     21          6           0       -3.073314    0.563692    0.000244
     22          7           0       -4.360561   -1.581086   -0.000005
     23          6           0        5.527950   -0.469235   -0.000358
     24          6           0        4.277624    0.194491   -0.000198
     25          6           0        3.073315   -0.563691   -0.000213
     26          6           0        3.191304   -1.964807   -0.000391
     27          1           0        2.288805   -2.569788   -0.000408
     28          6           0        4.441887   -2.595628   -0.000549
     29          1           0        4.483403   -3.680290   -0.000681
     30          6           0        5.627765   -1.863388   -0.000531
     31          1           0        6.592600   -2.359774   -0.000660
     32          7           0        4.360564    1.581086   -0.000029
     33          6           0        5.594763    1.976935   -0.000064
     34          1           0        5.888415    3.020338    0.000049
     35          6           0       -5.594761   -1.976935   -0.000005
     36          1           0       -5.888410   -3.020339   -0.000141
     37         16           0        6.816507    0.719567   -0.000297
     38         16           0       -6.816504   -0.719570    0.000199
 ---------------------------------------------------------------------
 Rotational constants (GHZ):      0.4806467      0.0673566      0.0590776
 Standard basis: 6-31+G(d,p) (6D, 7F)
 There are   590 symmetry adapted basis functions of A   symmetry.
 Integral buffers will be    131072 words long.
 Raffenetti 2 integral format.
 Two-electron integral symmetry is turned on.
   590 basis functions,  1014 primitive gaussians,   590 cartesian basis functions
   103 alpha electrons      103 beta electrons
       nuclear repulsion energy      2609.1964497715 Hartrees.
 NAtoms=   38 NActive=   38 NUniq=   38 SFac= 7.50D-01 NAtFMM=   80 NAOKFM=F Big=F
 One-electron integrals computed using PRISM.
 NBasis=   590 RedAO= T  NBF=   590
 NBsUse=   580 1.00D-06 NBFU=   580
 Harris functional with IExCor=20419 diagonalized for initial guess.
 ExpMin= 4.05D-02 ExpMax= 2.19D+04 ExpMxC= 3.30D+03 IAcc=2 IRadAn=         0 AccDes= 0.00D+00
 HarFok:  IExCor=20419 AccDes= 0.00D+00 IRadAn=         0 IDoV= 1
 ScaDFX=  1.000000  1.000000  1.000000  1.000000
 FoFCou: FMM=F IPFlag=           0 FMFlag=      100000 FMFlg1=           0
         NFxFlg=           0 DoJE=T BraDBF=F KetDBF=T FulRan=T
         Omega=  0.000000  0.000000  1.000000  0.000000  0.000000 ICntrl=     500 IOpCl=  0
         NMat0=    1 NMatS0=    1 NMatT0=    0 NMatD0=    1 NMtDS0=    0 NMtDT0=    0
         I1Cent=           4 NGrid=           0.
 Petite list used in FoFCou.
 Initial guess orbital symmetries:
       Occupied  (A) (A) (A) (A) (A) (A) (A) (A) (A) (A) (A) (A)
                 (A) (A) (A) (A) (A) (A) (A) (A) (A) (A) (A) (A)
                 (A) (A) (A) (A) (A) (A) (A) (A) (A) (A) (A) (A)
                 (A) (A) (A) (A) (A) (A) (A) (A) (A) (A) (A) (A)
                 (A) (A) (A) (A) (A) (A) (A) (A) (A) (A) (A) (A)
                 (A) (A) (A) (A) (A) (A) (A) (A) (A) (A) (A) (A)
                 (A) (A) (A) (A) (A) (A) (A) (A) (A) (A) (A) (A)
                 (A) (A) (A) (A) (A) (A) (A) (A) (A) (A) (A) (A)
                 (A) (A) (A) (A) (A) (A) (A)
       Virtual   (A) (A) (A) (A) (A) (A) (A) (A) (A) (A) (A) (A)
                 (A) (A) (A) (A) (A) (A) (A) (A) (A) (A) (A) (A)
                 (A) (A) (A) (A) (A) (A) (A) (A) (A) (A) (A) (A)
                 (A) (A) (A) (A) (A) (A) (A) (A) (A) (A) (A) (A)
                 (A) (A) (A) (A) (A) (A) (A) (A) (A) (A) (A) (A)
                 (A) (A) (A) (A) (A) (A) (A) (A) (A) (A) (A) (A)
                 (A) (A) (A) (A) (A) (A) (A) (A) (A) (A) (A) (A)
                 (A) (A) (A) (A) (A) (A) (A) (A) (A) (A) (A) (A)
                 (A) (A) (A) (A) (A) (A) (A) (A) (A) (A) (A) (A)
                 (A) (A) (A) (A) (A) (A) (A) (A) (A) (A) (A) (A)
                 (A) (A) (A) (A) (A) (A) (A) (A) (A) (A) (A) (A)
                 (A) (A) (A) (A) (A) (A) (A) (A) (A) (A) (A) (A)
                 (A) (A) (A) (A) (A) (A) (A) (A) (A) (A) (A) (A)
                 (A) (A) (A) (A) (A) (A) (A) (A) (A) (A) (A) (A)
                 (A) (A) (A) (A) (A) (A) (A) (A) (A) (A) (A) (A)
                 (A) (A) (A) (A) (A) (A) (A) (A) (A) (A) (A) (A)
                 (A) (A) (A) (A) (A) (A) (A) (A) (A) (A) (A) (A)
                 (A) (A) (A) (A) (A) (A) (A) (A) (A) (A) (A) (A)
                 (A) (A) (A) (A) (A) (A) (A) (A) (A) (A) (A) (A)
                 (A) (A) (A) (A) (A) (A) (A) (A) (A) (A) (A) (A)
                 (A) (A) (A) (A) (A) (A) (A) (A) (A) (A) (A) (A)
                 (A) (A) (A) (A) (A) (A) (A) (A) (A) (A) (A) (A)
                 (A) (A) (A) (A) (A) (A) (A) (A) (A) (A) (A) (A)
                 (A) (A) (A) (A) (A) (A) (A) (A) (A) (A) (A) (A)
                 (A) (A) (A) (A) (A) (A) (A) (A) (A) (A) (A) (A)
                 (A) (A) (A) (A) (A) (A) (A) (A) (A) (A) (A) (A)
                 (A) (A) (A) (A) (A) (A) (A) (A) (A) (A) (A) (A)
                 (A) (A) (A) (A) (A) (A) (A) (A) (A) (A) (A) (A)
                 (A) (A) (A) (A) (A) (A) (A) (A) (A) (A) (A) (A)
                 (A) (A) (A) (A) (A) (A) (A) (A) (A) (A) (A) (A)
                 (A) (A) (A) (A) (A) (A) (A) (A) (A) (A) (A) (A)
                 (A) (A) (A) (A) (A) (A) (A) (A) (A) (A) (A) (A)
                 (A) (A) (A) (A) (A) (A) (A) (A) (A) (A) (A) (A)
                 (A) (A) (A) (A) (A) (A) (A) (A) (A) (A) (A) (A)
                 (A) (A) (A) (A) (A) (A) (A) (A) (A) (A) (A) (A)
                 (A) (A) (A) (A) (A) (A) (A) (A) (A) (A) (A) (A)
                 (A) (A) (A) (A) (A) (A) (A) (A) (A) (A) (A) (A)
                 (A) (A) (A) (A) (A) (A) (A) (A) (A) (A) (A) (A)
                 (A) (A) (A) (A) (A) (A) (A) (A) (A) (A) (A) (A)
                 (A) (A) (A) (A) (A) (A) (A) (A) (A)
 The electronic state of the initial guess is 1-A.
 Requested convergence on RMS density matrix=1.00D-08 within 128 cycles.
 Requested convergence on MAX density matrix=1.00D-06.
 Requested convergence on             energy=1.00D-06.
 No special actions if energy rises.
 FoFJK:  IHMeth= 1 ICntrl=     0 DoSepK=T KAlg= 1 I1Cent= 0 FoldK=F
 FoFJK:  IHMeth= 1 ICntrl=     0 DoSepK=T KAlg= 1 I1Cent= 0 FoldK=F
 FoFJK:  IHMeth= 1 ICntrl=     0 DoSepK=T KAlg= 1 I1Cent= 0 FoldK=F
 FoFJK:  IHMeth= 1 ICntrl=     0 DoSepK=T KAlg= 1 I1Cent= 0 FoldK=F
 FoFJK:  IHMeth= 1 ICntrl=     0 DoSepK=T KAlg= 1 I1Cent= 0 FoldK=F
 FoFJK:  IHMeth= 1 ICntrl=     0 DoSepK=T KAlg= 1 I1Cent= 0 FoldK=F
 FoFJK:  IHMeth= 1 ICntrl=     0 DoSepK=T KAlg= 1 I1Cent= 0 FoldK=F
 FoFJK:  IHMeth= 1 ICntrl=     0 DoSepK=T KAlg= 1 I1Cent= 0 FoldK=F
 FoFJK:  IHMeth= 1 ICntrl=     0 DoSepK=T KAlg= 1 I1Cent= 0 FoldK=F
 FoFJK:  IHMeth= 1 ICntrl=     0 DoSepK=T KAlg= 1 I1Cent= 0 FoldK=F
 FoFJK:  IHMeth= 1 ICntrl=     0 DoSepK=T KAlg= 1 I1Cent= 0 FoldK=F
 FoFJK:  IHMeth= 1 ICntrl=     0 DoSepK=T KAlg= 1 I1Cent= 0 FoldK=F
 FoFJK:  IHMeth= 1 ICntrl=     0 DoSepK=T KAlg= 1 I1Cent= 0 FoldK=F
 FoFJK:  IHMeth= 1 ICntrl=     0 DoSepK=T KAlg= 1 I1Cent= 0 FoldK=F
 FoFJK:  IHMeth= 1 ICntrl=     0 DoSepK=T KAlg= 1 I1Cent= 0 FoldK=F
 FoFJK:  IHMeth= 1 ICntrl=     0 DoSepK=T KAlg= 1 I1Cent= 0 FoldK=F
 SCF Done:  E(RCAM-B3LYP) =  -1933.50631142     A.U. after   16 cycles
             Convg  =    0.7555D-08             -V/T =  2.0068
 ExpMin= 4.05D-02 ExpMax= 2.19D+04 ExpMxC= 3.30D+03 IAcc=3 IRadAn=         5 AccDes= 0.00D+00
 HarFok:  IExCor=  205 AccDes= 0.00D+00 IRadAn=         5 IDoV=-2
 ScaDFX=  1.000000  1.000000  1.000000  1.000000
 Range of M.O.s used for correlation:    37   580
 NBasis=   590 NAE=   103 NBE=   103 NFC=    36 NFV=     0
 NROrb=    544 NOA=    67 NOB=    67 NVA=   477 NVB=   477

 **** Warning!!: The largest alpha MO coefficient is  0.10440135D+03

 Would need an additional 45013700000 words for in-memory AO integral storage.
 Orbital symmetries:
       Occupied  (A) (A) (A) (A) (A) (A) (A) (A) (A) (A) (A) (A)
                 (A) (A) (A) (A) (A) (A) (A) (A) (A) (A) (A) (A)
                 (A) (A) (A) (A) (A) (A) (A) (A) (A) (A) (A) (A)
                 (A) (A) (A) (A) (A) (A) (A) (A) (A) (A) (A) (A)
                 (A) (A) (A) (A) (A) (A) (A) (A) (A) (A) (A) (A)
                 (A) (A) (A) (A) (A) (A) (A) (A) (A) (A) (A) (A)
                 (A) (A) (A) (A) (A) (A) (A) (A) (A) (A) (A) (A)
                 (A) (A) (A) (A) (A) (A) (A) (A) (A) (A) (A) (A)
                 (A) (A) (A) (A) (A) (A) (A)
       Virtual   (A) (A) (A) (A) (A) (A) (A) (A) (A) (A) (A) (A)
                 (A) (A) (A) (A) (A) (A) (A) (A) (A) (A) (A) (A)
                 (A) (A) (A) (A) (A) (A) (A) (A) (A) (A) (A) (A)
                 (A) (A) (A) (A) (A) (A) (A) (A) (A) (A) (A) (A)
                 (A) (A) (A) (A) (A) (A) (A) (A) (A) (A) (A) (A)
                 (A) (A) (A) (A) (A) (A) (A) (A) (A) (A) (A) (A)
                 (A) (A) (A) (A) (A) (A) (A) (A) (A) (A) (A) (A)
                 (A) (A) (A) (A) (A) (A) (A) (A) (A) (A) (A) (A)
                 (A) (A) (A) (A) (A) (A) (A) (A) (A) (A) (A) (A)
                 (A) (A) (A) (A) (A) (A) (A) (A) (A) (A) (A) (A)
                 (A) (A) (A) (A) (A) (A) (A) (A) (A) (A) (A) (A)
                 (A) (A) (A) (A) (A) (A) (A) (A) (A) (A) (A) (A)
                 (A) (A) (A) (A) (A) (A) (A) (A) (A) (A) (A) (A)
                 (A) (A) (A) (A) (A) (A) (A) (A) (A) (A) (A) (A)
                 (A) (A) (A) (A) (A) (A) (A) (A) (A) (A) (A) (A)
                 (A) (A) (A) (A) (A) (A) (A) (A) (A) (A) (A) (A)
                 (A) (A) (A) (A) (A) (A) (A) (A) (A) (A) (A) (A)
                 (A) (A) (A) (A) (A) (A) (A) (A) (A) (A) (A) (A)
                 (A) (A) (A) (A) (A) (A) (A) (A) (A) (A) (A) (A)
                 (A) (A) (A) (A) (A) (A) (A) (A) (A) (A) (A) (A)
                 (A) (A) (A) (A) (A) (A) (A) (A) (A) (A) (A) (A)
                 (A) (A) (A) (A) (A) (A) (A) (A) (A) (A) (A) (A)
                 (A) (A) (A) (A) (A) (A) (A) (A) (A) (A) (A) (A)
                 (A) (A) (A) (A) (A) (A) (A) (A) (A) (A) (A) (A)
                 (A) (A) (A) (A) (A) (A) (A) (A) (A) (A) (A) (A)
                 (A) (A) (A) (A) (A) (A) (A) (A) (A) (A) (A) (A)
                 (A) (A) (A) (A) (A) (A) (A) (A) (A) (A) (A) (A)
                 (A) (A) (A) (A) (A) (A) (A) (A) (A) (A) (A) (A)
                 (A) (A) (A) (A) (A) (A) (A) (A) (A) (A) (A) (A)
                 (A) (A) (A) (A) (A) (A) (A) (A) (A) (A) (A) (A)
                 (A) (A) (A) (A) (A) (A) (A) (A) (A) (A) (A) (A)
                 (A) (A) (A) (A) (A) (A) (A) (A) (A) (A) (A) (A)
                 (A) (A) (A) (A) (A) (A) (A) (A) (A) (A) (A) (A)
                 (A) (A) (A) (A) (A) (A) (A) (A) (A) (A) (A) (A)
                 (A) (A) (A) (A) (A) (A) (A) (A) (A) (A) (A) (A)
                 (A) (A) (A) (A) (A) (A) (A) (A) (A) (A) (A) (A)
                 (A) (A) (A) (A) (A) (A) (A) (A) (A) (A) (A) (A)
                 (A) (A) (A) (A) (A) (A) (A) (A) (A) (A) (A) (A)
                 (A) (A) (A) (A) (A) (A) (A) (A) (A) (A) (A) (A)
                 (A) (A) (A) (A) (A) (A) (A) (A) (A)
    40 initial guesses have been made.
 Convergence on wavefunction:    0.001000000000000
 Iteration     1 Dimension    40 NMult    40
 CISAX will form    40 AO SS matrices at one time.
 FoFJK:  IHMeth= 1 ICntrl=     0 DoSepK=T KAlg= 1 I1Cent= 0 FoldK=F
 FoFJK:  IHMeth= 1 ICntrl=     0 DoSepK=T KAlg= 1 I1Cent= 0 FoldK=F
 New state      2 was old state     10
 New state      3 was old state      9
 New state      4 was old state      2
 New state      5 was old state      3
 No map to state      7
 New state      8 was old state      5
 New state      9 was old state      4
 New state     10 was old state      8
 Iteration     2 Dimension    60 NMult    60
 FoFJK:  IHMeth= 1 ICntrl=     0 DoSepK=T KAlg= 1 I1Cent= 0 FoldK=F
 FoFJK:  IHMeth= 1 ICntrl=     0 DoSepK=T KAlg= 1 I1Cent= 0 FoldK=F
 New state      6 was old state      7
 New state      7 was old state      6
 New state      9 was old state     10
 New state     10 was old state      9
 Iteration     3 Dimension    80 NMult    80
 FoFJK:  IHMeth= 1 ICntrl=     0 DoSepK=T KAlg= 1 I1Cent= 0 FoldK=F
 FoFJK:  IHMeth= 1 ICntrl=     0 DoSepK=T KAlg= 1 I1Cent= 0 FoldK=F
 New state      9 was old state     10
 New state     10 was old state      9
 Iteration     4 Dimension   100 NMult   100
 FoFJK:  IHMeth= 1 ICntrl=     0 DoSepK=T KAlg= 1 I1Cent= 0 FoldK=F
 FoFJK:  IHMeth= 1 ICntrl=     0 DoSepK=T KAlg= 1 I1Cent= 0 FoldK=F
 Iteration     5 Dimension   120 NMult   120
 FoFJK:  IHMeth= 1 ICntrl=     0 DoSepK=T KAlg= 1 I1Cent= 0 FoldK=F
 FoFJK:  IHMeth= 1 ICntrl=     0 DoSepK=T KAlg= 1 I1Cent= 0 FoldK=F
 Iteration     6 Dimension   132 NMult   132
 FoFJK:  IHMeth= 1 ICntrl=     0 DoSepK=T KAlg= 1 I1Cent= 0 FoldK=F
 FoFJK:  IHMeth= 1 ICntrl=     0 DoSepK=T KAlg= 1 I1Cent= 0 FoldK=F
 Iteration     7 Dimension   134 NMult   134
 FoFJK:  IHMeth= 1 ICntrl=     0 DoSepK=T KAlg= 1 I1Cent= 0 FoldK=F
 FoFJK:  IHMeth= 1 ICntrl=     0 DoSepK=T KAlg= 1 I1Cent= 0 FoldK=F
 ***********************************************************************
 Excited states from <AA,BB:AA,BB> singles matrix:
 ***********************************************************************
 
 Ground to excited state transition electric dipole moments (Au):
       state          X           Y           Z        Dip. S.      Osc.
         1        -3.2140     -0.4803      0.0001     10.5603      0.6719
         2         0.0000      0.0000      0.0000      0.0000      0.0000
         3         0.0000      0.0000     -0.0206      0.0004      0.0000
         4         0.0000      0.0000      0.0000      0.0000      0.0000
         5        -0.4918      0.4120      0.0001      0.4116      0.0431
         6         0.0000      0.0000      0.0000      0.0000      0.0000
         7         0.0000      0.0000      0.0000      0.0000      0.0000
         8         2.1212     -0.4826     -0.0002      4.7325      0.5205
         9         0.0000      0.0000      0.0000      0.0000      0.0000
        10        -0.7419     -0.7070      0.0000      1.0503      0.1175
 Ground to excited state transition velocity dipole moments (Au):
       state          X           Y           Z        Dip. S.      Osc.
         1         0.3023      0.0505      0.0000      0.0940      0.6563
         2         0.0000      0.0000      0.0000      0.0000      0.0000
         3         0.0000      0.0000      0.0077      0.0001      0.0003
         4         0.0000      0.0000      0.0000      0.0000      0.0000
         5         0.0711     -0.0566      0.0000      0.0083      0.0351
         6         0.0000      0.0000      0.0000      0.0000      0.0000
         7         0.0000      0.0000      0.0000      0.0000      0.0000
         8        -0.3371      0.0782      0.0000      0.1198      0.4841
         9         0.0000      0.0000      0.0000      0.0000      0.0000
        10         0.1222      0.1185      0.0000      0.0290      0.1152
 Ground to excited state transition magnetic dipole moments (Au):
       state          X           Y           Z
         1         0.0000      0.0001      0.0000
         2         0.0000      0.0001     -0.9177
         3         0.0000      0.0000      0.0000
         4         0.0000      0.0000     -0.1008
         5         0.0000      0.0000      0.0000
         6         0.2091     -0.7098     -0.0001
         7         0.0000     -0.0001      0.7906
         8         0.0000      0.0000      0.0000
         9         0.0000      0.0000      0.1259
        10         0.0000      0.0000      0.0000
 <0|del|b> * <b|rxdel|0> + <0|del|b> * <b|delr+rdel|0>
 Rotatory Strengths (R) in cgs (10**-40 erg-esu-cm/Gauss)
       state          XX          YY          ZZ    R(velocity)
         1         0.0140     -0.0069      0.0067      0.0046
 Total R(velocity) tensor for State=          1
                 1             2             3 
      1   0.139979D-01 -0.838835D-01 -0.105310D-02
      2   0.115315D-02 -0.691195D-02 -0.105692D-01
      3  -0.107171D-03  0.643254D-03  0.671660D-02
 R(velocity) tensor in inp. orien. for State=          1
                 1             2             3 
      1   0.139979D-01 -0.838835D-01 -0.105310D-02
      2   0.115315D-02 -0.691195D-02 -0.105692D-01
      3  -0.107171D-03  0.643254D-03  0.671660D-02
         2        -0.0072     -0.0086      0.0000     -0.0053
 Total R(velocity) tensor for State=          2
                 1             2             3 
      1  -0.718095D-02  0.536217D-02  0.184649D-02
      2  -0.100506D-02 -0.860705D-02  0.237761D-02
      3  -0.404532D-04  0.748963D-04  0.000000D+00
 R(velocity) tensor in inp. orien. for State=          2
                 1             2             3 
      1  -0.718095D-02  0.536217D-02  0.184649D-02
      2  -0.100506D-02 -0.860705D-02  0.237761D-02
      3  -0.404532D-04  0.748963D-04  0.000000D+00
         3        -0.0001     -0.0001      0.0000     -0.0001
 Total R(velocity) tensor for State=          3
                 1             2             3 
      1  -0.137513D-03  0.272414D-02  0.000000D+00
      2   0.718652D-04 -0.141860D-03  0.000000D+00
      3  -0.269830D-04 -0.346605D-04  0.000000D+00
 R(velocity) tensor in inp. orien. for State=          3
                 1             2             3 
      1  -0.137513D-03  0.272414D-02  0.000000D+00
      2   0.718652D-04 -0.141860D-03  0.000000D+00
      3  -0.269830D-04 -0.346605D-04  0.000000D+00
         4         0.0016      0.0000      0.0000      0.0005
 Total R(velocity) tensor for State=          4
                 1             2             3 
      1   0.159928D-02  0.214485D-01  0.397169D-02
      2   0.134208D-02 -0.273932D-04  0.289191D-03
      3  -0.354392D-04  0.450722D-04  0.000000D+00
 R(velocity) tensor in inp. orien. for State=          4
                 1             2             3 
      1   0.159928D-02  0.214485D-01  0.397169D-02
      2   0.134208D-02 -0.273930D-04  0.289192D-03
      3  -0.354392D-04  0.450722D-04  0.000000D+00
         5        -0.0075     -0.0016     -0.0038     -0.0043
 Total R(velocity) tensor for State=          5
                 1             2             3 
      1  -0.751261D-02 -0.943584D-02  0.537970D-02
      2  -0.129978D-02 -0.163179D-02 -0.274222D-02
      3   0.342495D-03  0.430868D-03 -0.375342D-02
 R(velocity) tensor in inp. orien. for State=          5
                 1             2             3 
      1  -0.751261D-02 -0.943584D-02  0.537970D-02
      2  -0.129978D-02 -0.163179D-02 -0.274222D-02
      3   0.342495D-03  0.430868D-03 -0.375342D-02
         6        -0.0007      0.0016      0.0009      0.0006
 Total R(velocity) tensor for State=          6
                 1             2             3 
      1  -0.659677D-03  0.553877D-02  0.000000D+00
      2  -0.187460D-03  0.157393D-02  0.000000D+00
      3   0.302684D-04 -0.986906D-04  0.894445D-03
 R(velocity) tensor in inp. orien. for State=          6
                 1             2             3 
      1  -0.659677D-03  0.553877D-02  0.000000D+00
      2  -0.187460D-03  0.157393D-02  0.000000D+00
      3   0.302685D-04 -0.986906D-04  0.894445D-03
         7        -0.0070     -0.0027      0.0000     -0.0032
 Total R(velocity) tensor for State=          7
                 1             2             3 
      1  -0.701076D-02  0.494805D-02 -0.317259D-02
      2   0.425934D-03 -0.265869D-02 -0.519588D-03
      3   0.123485D-04 -0.269912D-04  0.000000D+00
 R(velocity) tensor in inp. orien. for State=          7
                 1             2             3 
      1  -0.701076D-02  0.494805D-02 -0.317259D-02
      2   0.425934D-03 -0.265869D-02 -0.519588D-03
      3   0.123485D-04 -0.269912D-04  0.000000D+00
         8        -0.0129      0.0031      0.0134      0.0012
 Total R(velocity) tensor for State=          8
                 1             2             3 
      1  -0.129259D-01 -0.557281D-01 -0.246926D-02
      2   0.716591D-03  0.308216D-02  0.200665D-01
      3  -0.109456D-02 -0.472400D-02  0.133740D-01
 R(velocity) tensor in inp. orien. for State=          8
                 1             2             3 
      1  -0.129259D-01 -0.557281D-01 -0.246926D-02
      2   0.716591D-03  0.308216D-02  0.200665D-01
      3  -0.109456D-02 -0.472400D-02  0.133740D-01
         9         0.0021     -0.0008      0.0000      0.0005
 Total R(velocity) tensor for State=          9
                 1             2             3 
      1   0.214811D-02  0.197576D-01 -0.696013D-02
      2   0.933294D-03 -0.774063D-03 -0.211129D-03
      3   0.258470D-04 -0.418382D-04  0.000000D+00
 R(velocity) tensor in inp. orien. for State=          9
                 1             2             3 
      1   0.214811D-02  0.197576D-01 -0.696013D-02
      2   0.933294D-03 -0.774063D-03 -0.211129D-03
      3   0.258470D-04 -0.418382D-04  0.000000D+00
        10         0.0144     -0.0018      0.0045      0.0057
 Total R(velocity) tensor for State=         10
                 1             2             3 
      1   0.144238D-01 -0.148799D-01  0.336026D-01
      2   0.173556D-02 -0.179213D-02  0.256761D-01
      3   0.281845D-02 -0.290741D-02  0.448880D-02
 R(velocity) tensor in inp. orien. for State=         10
                 1             2             3 
      1   0.144238D-01 -0.148799D-01  0.336026D-01
      2   0.173556D-02 -0.179213D-02  0.256761D-01
      3   0.281845D-02 -0.290741D-02  0.448880D-02
 1/2[<0|r|b>*<b|rxdel|0> + (<0|rxdel|b>*<b|r|0>)*]
 Rotatory Strengths (R) in cgs (10**-40 erg-esu-cm/Gauss)
       state          XX          YY          ZZ     R(length)     R(au)
         1        -0.0070      0.0188      0.0000      0.0039      0.0000
         2         0.0000      0.0000     -0.0119     -0.0040      0.0000
         3         0.0000      0.0000     -0.0001      0.0000      0.0000
         4         0.0000      0.0000      0.0018      0.0006      0.0000
         5        -0.0034     -0.0111      0.0000     -0.0049      0.0000
         6         0.0011     -0.0027      0.0000     -0.0005      0.0000
         7         0.0000      0.0000     -0.0080     -0.0027      0.0000
         8         0.0174     -0.0135      0.0000      0.0013      0.0000
         9         0.0000      0.0000      0.0015      0.0005      0.0000
        10         0.0017      0.0155      0.0000      0.0057      0.0000
  1/2[<0|del|b>*<b|r|0> + (<0|r|b>*<b|del|0>)*] (Au)
       state          X           Y           Z        Dip. S.   Osc.(frdel)
         1        -0.9717     -0.0242      0.0000      0.9959      0.6640
         2         0.0000      0.0000      0.0000      0.0000      0.0000
         3         0.0000      0.0000     -0.0002      0.0002      0.0001
         4         0.0000      0.0000      0.0000      0.0000      0.0000
         5        -0.0350     -0.0233      0.0000      0.0583      0.0389
         6         0.0000      0.0000      0.0000      0.0000      0.0000
         7         0.0000      0.0000      0.0000      0.0000      0.0000
         8        -0.7152     -0.0377      0.0000      0.7529      0.5019
         9         0.0000      0.0000      0.0000      0.0000      0.0000
        10        -0.0907     -0.0838      0.0000      0.1745      0.1163
 Ground to excited state transition densities written to RWF  633

 Excitation energies and oscillator strengths:
 
 Excited State   1:      Singlet-A      2.5970 eV  477.41 nm  f=0.6719  <S**2>=0.000
     103 ->104         0.70285
 This state for optimization and/or second-order correction.
 Copying the excited state density for this state as the 1-particle RhoCI density.
 
 Excited State   2:      Singlet-A      3.6962 eV  335.44 nm  f=0.0000  <S**2>=0.000
      97 ->104         0.49229
     100 ->104         0.16904
     102 ->104         0.43724
 
 Excited State   3:      Singlet-A      3.8438 eV  322.56 nm  f=0.0000  <S**2>=0.000
      98 ->104         0.65835
      98 ->106        -0.13039
      98 ->112         0.12158
 
 Excited State   4:      Singlet-A      3.8851 eV  319.12 nm  f=0.0000  <S**2>=0.000
     103 ->105         0.67391
     103 ->107        -0.13620
 
 Excited State   5:      Singlet-A      4.2759 eV  289.96 nm  f=0.0431  <S**2>=0.000
      99 ->104         0.29718
     100 ->105        -0.10804
     100 ->107         0.12370
     101 ->104        -0.22120
     102 ->105        -0.16186
     103 ->106         0.51721
 
 Excited State   6:      Singlet-A      4.3018 eV  288.21 nm  f=0.0000  <S**2>=0.000
      96 ->104         0.62947
      96 ->106        -0.12813
      96 ->112         0.12198
      98 ->105         0.14931
 
 Excited State   7:      Singlet-A      4.3566 eV  284.59 nm  f=0.0000  <S**2>=0.000
      97 ->104        -0.22018
      99 ->105        -0.15538
      99 ->107         0.10757
     100 ->104         0.42086
     101 ->105         0.15511
     102 ->106         0.13324
     103 ->107        -0.39520
 
 Excited State   8:      Singlet-A      4.4892 eV  276.18 nm  f=0.5205  <S**2>=0.000
      99 ->104         0.39715
     100 ->105        -0.12291
     101 ->104         0.53282
     102 ->105         0.13612
 
 Excited State   9:      Singlet-A      4.5537 eV  272.27 nm  f=0.0000  <S**2>=0.000
      97 ->104        -0.33602
      99 ->105         0.10522
     100 ->104        -0.30174
     101 ->105         0.14903
     102 ->104         0.48758
 
 Excited State  10:      Singlet-A      4.5646 eV  271.62 nm  f=0.1175  <S**2>=0.000
      97 ->105        -0.10488
      99 ->104        -0.37723
     100 ->105         0.14555
     101 ->104         0.28297
     103 ->106         0.43513
     103 ->112        -0.19272
 SavETr:  write IOETrn=   770 NScale= 10 NData=  16 NLR=1 LETran=     190.

 **********************************************************************

            Population analysis using the SCF density.

 **********************************************************************

 Orbital symmetries:
       Occupied  (A) (A) (A) (A) (A) (A) (A) (A) (A) (A) (A) (A)
                 (A) (A) (A) (A) (A) (A) (A) (A) (A) (A) (A) (A)
                 (A) (A) (A) (A) (A) (A) (A) (A) (A) (A) (A) (A)
                 (A) (A) (A) (A) (A) (A) (A) (A) (A) (A) (A) (A)
                 (A) (A) (A) (A) (A) (A) (A) (A) (A) (A) (A) (A)
                 (A) (A) (A) (A) (A) (A) (A) (A) (A) (A) (A) (A)
                 (A) (A) (A) (A) (A) (A) (A) (A) (A) (A) (A) (A)
                 (A) (A) (A) (A) (A) (A) (A) (A) (A) (A) (A) (A)
                 (A) (A) (A) (A) (A) (A) (A)
       Virtual   (A) (A) (A) (A) (A) (A) (A) (A) (A) (A) (A) (A)
                 (A) (A) (A) (A) (A) (A) (A) (A) (A) (A) (A) (A)
                 (A) (A) (A) (A) (A) (A) (A) (A) (A) (A) (A) (A)
                 (A) (A) (A) (A) (A) (A) (A) (A) (A) (A) (A) (A)
                 (A) (A) (A) (A) (A) (A) (A) (A) (A) (A) (A) (A)
                 (A) (A) (A) (A) (A) (A) (A) (A) (A) (A) (A) (A)
                 (A) (A) (A) (A) (A) (A) (A) (A) (A) (A) (A) (A)
                 (A) (A) (A) (A) (A) (A) (A) (A) (A) (A) (A) (A)
                 (A) (A) (A) (A) (A) (A) (A) (A) (A) (A) (A) (A)
                 (A) (A) (A) (A) (A) (A) (A) (A) (A) (A) (A) (A)
                 (A) (A) (A) (A) (A) (A) (A) (A) (A) (A) (A) (A)
                 (A) (A) (A) (A) (A) (A) (A) (A) (A) (A) (A) (A)
                 (A) (A) (A) (A) (A) (A) (A) (A) (A) (A) (A) (A)
                 (A) (A) (A) (A) (A) (A) (A) (A) (A) (A) (A) (A)
                 (A) (A) (A) (A) (A) (A) (A) (A) (A) (A) (A) (A)
                 (A) (A) (A) (A) (A) (A) (A) (A) (A) (A) (A) (A)
                 (A) (A) (A) (A) (A) (A) (A) (A) (A) (A) (A) (A)
                 (A) (A) (A) (A) (A) (A) (A) (A) (A) (A) (A) (A)
                 (A) (A) (A) (A) (A) (A) (A) (A) (A) (A) (A) (A)
                 (A) (A) (A) (A) (A) (A) (A) (A) (A) (A) (A) (A)
                 (A) (A) (A) (A) (A) (A) (A) (A) (A) (A) (A) (A)
                 (A) (A) (A) (A) (A) (A) (A) (A) (A) (A) (A) (A)
                 (A) (A) (A) (A) (A) (A) (A) (A) (A) (A) (A) (A)
                 (A) (A) (A) (A) (A) (A) (A) (A) (A) (A) (A) (A)
                 (A) (A) (A) (A) (A) (A) (A) (A) (A) (A) (A) (A)
                 (A) (A) (A) (A) (A) (A) (A) (A) (A) (A) (A) (A)
                 (A) (A) (A) (A) (A) (A) (A) (A) (A) (A) (A) (A)
                 (A) (A) (A) (A) (A) (A) (A) (A) (A) (A) (A) (A)
                 (A) (A) (A) (A) (A) (A) (A) (A) (A) (A) (A) (A)
                 (A) (A) (A) (A) (A) (A) (A) (A) (A) (A) (A) (A)
                 (A) (A) (A) (A) (A) (A) (A) (A) (A) (A) (A) (A)
                 (A) (A) (A) (A) (A) (A) (A) (A) (A) (A) (A) (A)
                 (A) (A) (A) (A) (A) (A) (A) (A) (A) (A) (A) (A)
                 (A) (A) (A) (A) (A) (A) (A) (A) (A) (A) (A) (A)
                 (A) (A) (A) (A) (A) (A) (A) (A) (A) (A) (A) (A)
                 (A) (A) (A) (A) (A) (A) (A) (A) (A) (A) (A) (A)
                 (A) (A) (A) (A) (A) (A) (A) (A) (A) (A) (A) (A)
                 (A) (A) (A) (A) (A) (A) (A) (A) (A) (A) (A) (A)
                 (A) (A) (A) (A) (A) (A) (A) (A) (A) (A) (A) (A)
                 (A) (A) (A) (A) (A) (A) (A) (A) (A)
 The electronic state is 1-A.
 Alpha  occ. eigenvalues --  -89.01437 -89.01437 -19.20497 -19.20497 -14.44993
 Alpha  occ. eigenvalues --  -14.44993 -14.44686 -14.44686 -10.37818 -10.37817
 Alpha  occ. eigenvalues --  -10.36149 -10.36149 -10.34474 -10.34473 -10.32977
 Alpha  occ. eigenvalues --  -10.32977 -10.32715 -10.32715 -10.30802 -10.30802
 Alpha  occ. eigenvalues --  -10.30132 -10.30132 -10.28922 -10.28922 -10.28434
 Alpha  occ. eigenvalues --  -10.28433 -10.26686 -10.26643  -8.07495  -8.07495
 Alpha  occ. eigenvalues --   -6.04017  -6.04017  -6.03651  -6.03651  -6.03246
 Alpha  occ. eigenvalues --   -6.03246  -1.12855  -1.12271  -1.08031  -1.08023
 Alpha  occ. eigenvalues --   -1.05591  -1.04201  -0.96001  -0.95991  -0.91462
 Alpha  occ. eigenvalues --   -0.91449  -0.88712  -0.86540  -0.85985  -0.84318
 Alpha  occ. eigenvalues --   -0.83909  -0.80142  -0.77290  -0.74872  -0.72654
 Alpha  occ. eigenvalues --   -0.72062  -0.70551  -0.69078  -0.67942  -0.67567
 Alpha  occ. eigenvalues --   -0.64283  -0.61544  -0.59992  -0.59451  -0.58146
 Alpha  occ. eigenvalues --   -0.58008  -0.57774  -0.56951  -0.55556  -0.54924
 Alpha  occ. eigenvalues --   -0.54679  -0.54118  -0.52363  -0.52334  -0.51619
 Alpha  occ. eigenvalues --   -0.50606  -0.50506  -0.50224  -0.49144  -0.49126
 Alpha  occ. eigenvalues --   -0.48183  -0.47904  -0.45831  -0.45044  -0.44687
 Alpha  occ. eigenvalues --   -0.44634  -0.43701  -0.43112  -0.42652  -0.41808
 Alpha  occ. eigenvalues --   -0.41057  -0.37959  -0.37511  -0.37329  -0.37191
 Alpha  occ. eigenvalues --   -0.34005  -0.32376  -0.32256  -0.31814  -0.31710
 Alpha  occ. eigenvalues --   -0.31637  -0.31089  -0.24024
 Alpha virt. eigenvalues --   -0.07197  -0.02529  -0.00899   0.00439   0.01554
 Alpha virt. eigenvalues --    0.01596   0.02340   0.02476   0.02833   0.04344
 Alpha virt. eigenvalues --    0.04695   0.04715   0.05044   0.05086   0.05165
 Alpha virt. eigenvalues --    0.05723   0.06121   0.06139   0.06168   0.06705
 Alpha virt. eigenvalues --    0.07314   0.07515   0.08271   0.08332   0.08447
 Alpha virt. eigenvalues --    0.08839   0.09551   0.10128   0.10369   0.10538
 Alpha virt. eigenvalues --    0.10699   0.11029   0.12028   0.12067   0.12168
 Alpha virt. eigenvalues --    0.12775   0.13046   0.13196   0.13808   0.14479
 Alpha virt. eigenvalues --    0.14507   0.14585   0.14594   0.15105   0.15372
 Alpha virt. eigenvalues --    0.15904   0.15971   0.16182   0.16233   0.17046
 Alpha virt. eigenvalues --    0.17323   0.17437   0.17879   0.18213   0.18846
 Alpha virt. eigenvalues --    0.19022   0.19211   0.19238   0.19322   0.20262
 Alpha virt. eigenvalues --    0.20381   0.20548   0.20697   0.21541   0.21648
 Alpha virt. eigenvalues --    0.21805   0.21809   0.22046   0.22066   0.22821
 Alpha virt. eigenvalues --    0.22977   0.23322   0.23504   0.23554   0.23907
 Alpha virt. eigenvalues --    0.24514   0.24769   0.24895   0.25137   0.25258
 Alpha virt. eigenvalues --    0.25311   0.25980   0.26132   0.26251   0.26283
 Alpha virt. eigenvalues --    0.27084   0.27159   0.27191   0.27513   0.27907
 Alpha virt. eigenvalues --    0.28118   0.28894   0.29251   0.29513   0.30070
 Alpha virt. eigenvalues --    0.30530   0.30566   0.30787   0.30833   0.30942
 Alpha virt. eigenvalues --    0.31321   0.32060   0.32145   0.32252   0.32517
 Alpha virt. eigenvalues --    0.32522   0.32633   0.33475   0.33515   0.34032
 Alpha virt. eigenvalues --    0.35041   0.35180   0.35577   0.35612   0.35817
 Alpha virt. eigenvalues --    0.36310   0.36598   0.36923   0.37265   0.37559
 Alpha virt. eigenvalues --    0.37742   0.37758   0.38647   0.38853   0.38957
 Alpha virt. eigenvalues --    0.39790   0.40072   0.40394   0.41417   0.42346
 Alpha virt. eigenvalues --    0.42890   0.43699   0.43931   0.45840   0.46100
 Alpha virt. eigenvalues --    0.46693   0.47053   0.47986   0.48800   0.49048
 Alpha virt. eigenvalues --    0.50492   0.51109   0.51591   0.53058   0.53582
 Alpha virt. eigenvalues --    0.54229   0.55004   0.55194   0.56180   0.56325
 Alpha virt. eigenvalues --    0.57060   0.57279   0.57471   0.58022   0.61744
 Alpha virt. eigenvalues --    0.63188   0.63559   0.64320   0.65665   0.66201
 Alpha virt. eigenvalues --    0.66294   0.67152   0.68395   0.69757   0.70978
 Alpha virt. eigenvalues --    0.71000   0.71233   0.72329   0.72756   0.72988
 Alpha virt. eigenvalues --    0.73252   0.73435   0.74131   0.75073   0.75512
 Alpha virt. eigenvalues --    0.75841   0.76517   0.78016   0.78325   0.78473
 Alpha virt. eigenvalues --    0.78823   0.79129   0.79909   0.79919   0.79996
 Alpha virt. eigenvalues --    0.81713   0.82544   0.84240   0.84275   0.84505
 Alpha virt. eigenvalues --    0.84772   0.85957   0.85982   0.86265   0.86842
 Alpha virt. eigenvalues --    0.86932   0.87900   0.87990   0.88875   0.89673
 Alpha virt. eigenvalues --    0.90437   0.92980   0.93880   0.93971   0.94443
 Alpha virt. eigenvalues --    0.94724   0.94843   0.95561   0.95657   0.96453
 Alpha virt. eigenvalues --    0.96574   0.99456   1.00325   1.01823   1.02179
 Alpha virt. eigenvalues --    1.02804   1.03781   1.03934   1.04630   1.05040
 Alpha virt. eigenvalues --    1.05176   1.06163   1.07107   1.07503   1.07661
 Alpha virt. eigenvalues --    1.09270   1.09581   1.10201   1.10445   1.11405
 Alpha virt. eigenvalues --    1.12381   1.13539   1.15080   1.15765   1.18341
 Alpha virt. eigenvalues --    1.18823   1.19452   1.20011   1.20241   1.22238
 Alpha virt. eigenvalues --    1.22284   1.23577   1.24307   1.26146   1.27296
 Alpha virt. eigenvalues --    1.27464   1.27946   1.28527   1.29056   1.29313
 Alpha virt. eigenvalues --    1.30516   1.31682   1.32049   1.33295   1.34161
 Alpha virt. eigenvalues --    1.34515   1.34558   1.35390   1.35874   1.36142
 Alpha virt. eigenvalues --    1.36350   1.36802   1.37621   1.38424   1.39448
 Alpha virt. eigenvalues --    1.39557   1.39750   1.40323   1.40537   1.41925
 Alpha virt. eigenvalues --    1.42103   1.42370   1.43371   1.44121   1.44805
 Alpha virt. eigenvalues --    1.45357   1.45470   1.45474   1.46231   1.46718
 Alpha virt. eigenvalues --    1.46758   1.48245   1.48859   1.48988   1.49673
 Alpha virt. eigenvalues --    1.49674   1.52702   1.53055   1.54530   1.58257
 Alpha virt. eigenvalues --    1.59480   1.59535   1.59986   1.61504   1.62837
 Alpha virt. eigenvalues --    1.65462   1.66012   1.69311   1.71648   1.72412
 Alpha virt. eigenvalues --    1.72704   1.72863   1.73230   1.76520   1.77182
 Alpha virt. eigenvalues --    1.79227   1.81301   1.81346   1.83304   1.83777
 Alpha virt. eigenvalues --    1.84047   1.85392   1.87236   1.89865   1.90115
 Alpha virt. eigenvalues --    1.90525   1.91887   1.94344   1.94747   1.94794
 Alpha virt. eigenvalues --    1.95930   1.97148   1.98070   1.98384   1.99594
 Alpha virt. eigenvalues --    1.99809   1.99936   2.00352   2.01283   2.01615
 Alpha virt. eigenvalues --    2.01808   2.03813   2.05903   2.06081   2.08504
 Alpha virt. eigenvalues --    2.08569   2.09327   2.09366   2.09621   2.10486
 Alpha virt. eigenvalues --    2.12495   2.12623   2.12713   2.13572   2.15117
 Alpha virt. eigenvalues --    2.16427   2.17094   2.18492   2.18887   2.20703
 Alpha virt. eigenvalues --    2.22779   2.24454   2.24834   2.26671   2.26825
 Alpha virt. eigenvalues --    2.27908   2.29220   2.30432   2.31354   2.33046
 Alpha virt. eigenvalues --    2.34225   2.36276   2.37594   2.37663   2.38355
 Alpha virt. eigenvalues --    2.39716   2.41536   2.41767   2.43848   2.44315
 Alpha virt. eigenvalues --    2.45794   2.45919   2.45989   2.46718   2.47932
 Alpha virt. eigenvalues --    2.49622   2.51034   2.53307   2.53937   2.54457
 Alpha virt. eigenvalues --    2.54924   2.54976   2.56222   2.57682   2.58084
 Alpha virt. eigenvalues --    2.58559   2.60047   2.60397   2.60920   2.61786
 Alpha virt. eigenvalues --    2.63043   2.64000   2.64094   2.66275   2.66677
 Alpha virt. eigenvalues --    2.66989   2.69870   2.70498   2.71394   2.71625
 Alpha virt. eigenvalues --    2.71857   2.71970   2.71970   2.73755   2.75605
 Alpha virt. eigenvalues --    2.79032   2.79138   2.80314   2.81740   2.83082
 Alpha virt. eigenvalues --    2.84816   2.85679   2.87751   2.88699   2.91043
 Alpha virt. eigenvalues --    2.91540   2.92075   2.95457   2.99325   3.01147
 Alpha virt. eigenvalues --    3.02638   3.04543   3.08693   3.08869   3.10790
 Alpha virt. eigenvalues --    3.12428   3.13827   3.18061   3.19069   3.20270
 Alpha virt. eigenvalues --    3.23168   3.29934   3.30155   3.31724   3.35537
 Alpha virt. eigenvalues --    3.37027   3.37147   3.38152   3.38540   3.45347
 Alpha virt. eigenvalues --    3.47355   3.49715   3.51475   3.53699   3.58380
 Alpha virt. eigenvalues --    3.68625   3.69969   3.85223   3.85455   4.04277
 Alpha virt. eigenvalues --    4.04693   4.28971   4.30634   4.33549   4.35813
 Alpha virt. eigenvalues --    4.36457   4.39881   4.40055   4.40698   4.43167
 Alpha virt. eigenvalues --    4.44105   4.49693   4.50575   4.51658   4.53047
 Alpha virt. eigenvalues --    4.54983   4.59749   4.61913   4.65461   4.66414
 Alpha virt. eigenvalues --    4.68717   4.75128   4.84068   4.91937   4.93905
 Alpha virt. eigenvalues --    5.12676   5.21524
          Condensed to atoms (all electrons):
              1          2          3          4          5          6
     1  N    7.433362   0.207450   0.125059  -0.197807  -0.243251   0.052058
     2  C    0.207450   7.073149  -0.393787  -0.459279  -1.146616   0.085894
     3  C    0.125059  -0.393787   8.134271   0.233942  -0.534626   0.491078
     4  C   -0.197807  -0.459279   0.233942   9.561856   0.294870  -0.534771
     5  C   -0.243251  -1.146616  -0.534626   0.294870   9.562048   0.234096
     6  C    0.052058   0.085894   0.491078  -0.534771   0.234096   8.134192
     7  C   -0.043654   0.007354   0.085980  -1.146450  -0.459408  -0.393756
     8  N    0.004470  -0.043650   0.052067  -0.243224  -0.197811   0.125069
     9  O   -0.073755   0.358945  -0.048363  -0.010865  -0.054319   0.027325
    10  O   -0.004948   0.007051   0.027316  -0.054331  -0.010857  -0.048367
    11  H    0.000087   0.002184  -0.004753  -0.023924   0.040700  -0.010727
    12  H    0.288192  -0.015735  -0.010735   0.040703  -0.023929  -0.004754
    13  C    0.012279  -0.110551  -0.155839  -0.398709   0.382854  -0.321421
    14  C   -0.002471  -0.111855  -0.162864  -0.125094  -0.356322  -0.610144
    15  C    0.001321   0.014560   0.000816  -0.157780   0.061597  -0.422198
    16  H    0.000000  -0.000128  -0.000004   0.000007   0.000479   0.001267
    17  C    0.023392   0.040122   0.145613   0.183014   0.013903  -0.202902
    18  H   -0.000004  -0.001403   0.000014  -0.000122   0.000740  -0.001237
    19  C    0.040631   0.010875  -0.138017  -0.521123  -1.264602  -1.255733
    20  H    0.003382   0.016686   0.015907  -0.004476   0.047048  -0.045014
    21  C   -0.069006  -0.116480  -0.271583   0.266949   0.722373   0.696327
    22  N   -0.000964  -0.008324   0.009035  -0.034836   0.011016  -0.028589
    23  C   -0.078573  -0.008345  -0.610340  -0.356298  -0.125175  -0.162881
    24  C    0.042122   0.094959  -0.321432   0.382865  -0.398793  -0.155878
    25  C   -0.016366   0.024205   0.696426   0.722334   0.267015  -0.271557
    26  C   -0.064480  -0.039245  -1.255723  -1.264535  -0.521113  -0.138016
    27  H    0.000499  -0.000672  -0.045014   0.047049  -0.004478   0.015907
    28  C    0.025362  -0.056185  -0.202922   0.013869   0.182995   0.145612
    29  H    0.000046  -0.000032  -0.001238   0.000740  -0.000122   0.000014
    30  C    0.023508   0.027901  -0.422228   0.061620  -0.157788   0.000816
    31  H    0.000042   0.000039   0.001267   0.000479   0.000007  -0.000004
    32  N    0.013742   0.019180  -0.028592   0.011015  -0.034834   0.009036
    33  C   -0.035455  -0.038042  -0.087406  -0.030415  -0.025165  -0.010628
    34  H   -0.002251  -0.000406   0.015632   0.001891  -0.000632   0.000110
    35  C    0.000043  -0.007519  -0.010628  -0.025160  -0.030421  -0.087397
    36  H    0.000000   0.000070   0.000110  -0.000632   0.001891   0.015631
    37  S    0.000931   0.002433  -0.018152  -0.019725   0.014905   0.002572
    38  S    0.000004   0.001996   0.002572   0.014904  -0.019723  -0.018156
              7          8          9         10         11         12
     1  N   -0.043654   0.004470  -0.073755  -0.004948   0.000087   0.288192
     2  C    0.007354  -0.043650   0.358945   0.007051   0.002184  -0.015735
     3  C    0.085980   0.052067  -0.048363   0.027316  -0.004753  -0.010735
     4  C   -1.146450  -0.243224  -0.010865  -0.054331  -0.023924   0.040703
     5  C   -0.459408  -0.197811  -0.054319  -0.010857   0.040700  -0.023929
     6  C   -0.393756   0.125069   0.027325  -0.048367  -0.010727  -0.004754
     7  C    7.073023   0.207439   0.007048   0.358960  -0.015739   0.002185
     8  N    0.207439   7.433361  -0.004948  -0.073754   0.288191   0.000087
     9  O    0.007048  -0.004948   8.440882   0.000020   0.000021  -0.002298
    10  O    0.358960  -0.073754   0.000020   8.440879  -0.002298   0.000021
    11  H   -0.015739   0.288191   0.000021  -0.002298   0.344259   0.000000
    12  H    0.002185   0.000087  -0.002298   0.000021   0.000000   0.344259
    13  C    0.094891   0.042110   0.013231  -0.009090   0.024359  -0.000009
    14  C   -0.008410  -0.078584   0.006031  -0.001236   0.028903  -0.000041
    15  C    0.027891   0.023503  -0.007622  -0.000362   0.008054   0.000001
    16  H    0.000039   0.000042   0.000007   0.000000   0.000000   0.000000
    17  C   -0.056169   0.025369  -0.097220   0.000280  -0.005984   0.000403
    18  H   -0.000032   0.000046   0.000223   0.000000   0.000000   0.000000
    19  C   -0.039296  -0.064496  -0.082731  -0.003695  -0.013542   0.001808
    20  H   -0.000672   0.000499  -0.001655   0.000004   0.000001  -0.000002
    21  C    0.024196  -0.016365   0.081444   0.013693  -0.047671  -0.003067
    22  N    0.019181   0.013742   0.000220  -0.003397   0.042801  -0.000001
    23  C   -0.111821  -0.002471  -0.001236   0.006031  -0.000041   0.028907
    24  C   -0.110504   0.012281  -0.009092   0.013231  -0.000009   0.024363
    25  C   -0.116466  -0.069003   0.013693   0.081444  -0.003067  -0.047674
    26  C    0.010978   0.040631  -0.003695  -0.082739   0.001808  -0.013542
    27  H    0.016683   0.003382   0.000004  -0.001654  -0.000002   0.000001
    28  C    0.040073   0.023391   0.000280  -0.097214   0.000403  -0.005984
    29  H   -0.001403  -0.000004   0.000000   0.000223   0.000000   0.000000
    30  C    0.014566   0.001321  -0.000362  -0.007623   0.000001   0.008054
    31  H   -0.000128   0.000000   0.000000   0.000007   0.000000   0.000000
    32  N   -0.008323  -0.000964  -0.003397   0.000220  -0.000001   0.042800
    33  C   -0.007517   0.000043  -0.000342   0.000067   0.000000  -0.003342
    34  H    0.000070   0.000000   0.000002   0.000000   0.000000  -0.000088
    35  C   -0.038049  -0.035456   0.000067  -0.000342  -0.003342   0.000000
    36  H   -0.000405  -0.002251   0.000000   0.000002  -0.000088   0.000000
    37  S    0.001996   0.000004   0.000397  -0.000056   0.000000  -0.003722
    38  S    0.002435   0.000931  -0.000056   0.000397  -0.003722   0.000000
             13         14         15         16         17         18
     1  N    0.012279  -0.002471   0.001321   0.000000   0.023392  -0.000004
     2  C   -0.110551  -0.111855   0.014560  -0.000128   0.040122  -0.001403
     3  C   -0.155839  -0.162864   0.000816  -0.000004   0.145613   0.000014
     4  C   -0.398709  -0.125094  -0.157780   0.000007   0.183014  -0.000122
     5  C    0.382854  -0.356322   0.061597   0.000479   0.013903   0.000740
     6  C   -0.321421  -0.610144  -0.422198   0.001267  -0.202902  -0.001237
     7  C    0.094891  -0.008410   0.027891   0.000039  -0.056169  -0.000032
     8  N    0.042110  -0.078584   0.023503   0.000042   0.025369   0.000046
     9  O    0.013231   0.006031  -0.007622   0.000007  -0.097220   0.000223
    10  O   -0.009090  -0.001236  -0.000362   0.000000   0.000280   0.000000
    11  H    0.024359   0.028903   0.008054   0.000000  -0.005984   0.000000
    12  H   -0.000009  -0.000041   0.000001   0.000000   0.000403   0.000000
    13  C    9.158393  -1.258271  -2.024100   0.012040   0.388073   0.001204
    14  C   -1.258271  11.141675  -1.125468   0.042219  -1.335059   0.003283
    15  C   -2.024100  -1.125468   9.884762   0.258028   0.861393  -0.014281
    16  H    0.012040   0.042219   0.258028   0.536682  -0.038997  -0.004155
    17  C    0.388073  -1.335059   0.861393  -0.038997   7.592141   0.360330
    18  H    0.001204   0.003283  -0.014281  -0.004155   0.360330   0.535533
    19  C   -0.625987   2.532836  -0.852076   0.037191  -1.476072  -0.044108
    20  H    0.032191  -0.034229   0.020326  -0.000146   0.068546  -0.004522
    21  C    1.491223  -2.521874  -0.387385   0.012565  -0.051708   0.021362
    22  N    0.223255  -0.014182  -0.060526  -0.001106  -0.031546   0.000265
    23  C   -0.006335  -0.000577  -0.000186   0.000000   0.001163   0.000000
    24  C   -0.025859  -0.006335  -0.000472   0.000000   0.007637   0.000000
    25  C   -0.062876  -0.010362  -0.007086   0.000000   0.025742  -0.000002
    26  C   -0.038789  -0.007093   0.000113   0.000000   0.007874   0.000001
    27  H    0.000565   0.000046   0.000007   0.000000  -0.000039   0.000000
    28  C    0.007635   0.001163   0.000226   0.000000  -0.000521   0.000000
    29  H    0.000000   0.000000   0.000000   0.000000   0.000000   0.000000
    30  C   -0.000471  -0.000186   0.000014   0.000000   0.000226   0.000000
    31  H    0.000000   0.000000   0.000000   0.000000   0.000000   0.000000
    32  N    0.000167  -0.000035   0.000007   0.000000   0.000435   0.000000
    33  C   -0.000411  -0.000040  -0.000007   0.000000   0.000233   0.000000
    34  H    0.000000   0.000000   0.000000   0.000000   0.000000   0.000000
    35  C   -1.141694   0.596727   0.419049  -0.000958  -0.036595   0.000235
    36  H    0.066073  -0.047368  -0.006711  -0.000001   0.000959   0.000000
    37  S    0.000042   0.000009   0.000001   0.000000  -0.000017   0.000000
    38  S    0.319938  -0.031911  -0.533536  -0.005225   0.090441  -0.002581
             19         20         21         22         23         24
     1  N    0.040631   0.003382  -0.069006  -0.000964  -0.078573   0.042122
     2  C    0.010875   0.016686  -0.116480  -0.008324  -0.008345   0.094959
     3  C   -0.138017   0.015907  -0.271583   0.009035  -0.610340  -0.321432
     4  C   -0.521123  -0.004476   0.266949  -0.034836  -0.356298   0.382865
     5  C   -1.264602   0.047048   0.722373   0.011016  -0.125175  -0.398793
     6  C   -1.255733  -0.045014   0.696327  -0.028589  -0.162881  -0.155878
     7  C   -0.039296  -0.000672   0.024196   0.019181  -0.111821  -0.110504
     8  N   -0.064496   0.000499  -0.016365   0.013742  -0.002471   0.012281
     9  O   -0.082731  -0.001655   0.081444   0.000220  -0.001236  -0.009092
    10  O   -0.003695   0.000004   0.013693  -0.003397   0.006031   0.013231
    11  H   -0.013542   0.000001  -0.047671   0.042801  -0.000041  -0.000009
    12  H    0.001808  -0.000002  -0.003067  -0.000001   0.028907   0.024363
    13  C   -0.625987   0.032191   1.491223   0.223255  -0.006335  -0.025859
    14  C    2.532836  -0.034229  -2.521874  -0.014182  -0.000577  -0.006335
    15  C   -0.852076   0.020326  -0.387385  -0.060526  -0.000186  -0.000472
    16  H    0.037191  -0.000146   0.012565  -0.001106   0.000000   0.000000
    17  C   -1.476072   0.068546  -0.051708  -0.031546   0.001163   0.007637
    18  H   -0.044108  -0.004522   0.021362   0.000265   0.000000   0.000000
    19  C   12.708539   0.275710  -3.077514   0.041790  -0.007094  -0.038794
    20  H    0.275710   0.500531  -0.079005  -0.000862   0.000046   0.000565
    21  C   -3.077514  -0.079005   9.539731  -0.102319  -0.010366  -0.062890
    22  N    0.041790  -0.000862  -0.102319   7.052971  -0.000035   0.000167
    23  C   -0.007094   0.000046  -0.010366  -0.000035  11.142157  -1.258570
    24  C   -0.038794   0.000565  -0.062890   0.000167  -1.258570   9.158886
    25  C   -0.017445  -0.001693   0.040231  -0.002361  -2.522181   1.491325
    26  C    0.005876  -0.000547  -0.017449   0.002878   2.532912  -0.626012
    27  H   -0.000547   0.000000  -0.001693   0.000024  -0.034229   0.032192
    28  C    0.007874  -0.000039   0.025742   0.000436  -1.335048   0.388024
    29  H    0.000001   0.000000  -0.000002   0.000000   0.003283   0.001204
    30  C    0.000113   0.000007  -0.007086   0.000007  -1.125353  -2.024252
    31  H    0.000000   0.000000   0.000000   0.000000   0.042220   0.012041
    32  N    0.002878   0.000024  -0.002361  -0.000001  -0.014164   0.223241
    33  C   -0.000297   0.000007  -0.000925   0.000002   0.596796  -1.141738
    34  H    0.000005   0.000000  -0.000001   0.000000  -0.047374   0.066078
    35  C    0.247370   0.000656  -0.412539   0.052038  -0.000040  -0.000411
    36  H   -0.006013   0.000000   0.006015  -0.078955   0.000000   0.000000
    37  S    0.000130  -0.000002   0.000542   0.000001  -0.031943   0.319959
    38  S   -0.003730  -0.000289   0.057736   0.007956   0.000009   0.000042
             25         26         27         28         29         30
     1  N   -0.016366  -0.064480   0.000499   0.025362   0.000046   0.023508
     2  C    0.024205  -0.039245  -0.000672  -0.056185  -0.000032   0.027901
     3  C    0.696426  -1.255723  -0.045014  -0.202922  -0.001238  -0.422228
     4  C    0.722334  -1.264535   0.047049   0.013869   0.000740   0.061620
     5  C    0.267015  -0.521113  -0.004478   0.182995  -0.000122  -0.157788
     6  C   -0.271557  -0.138016   0.015907   0.145612   0.000014   0.000816
     7  C   -0.116466   0.010978   0.016683   0.040073  -0.001403   0.014566
     8  N   -0.069003   0.040631   0.003382   0.023391  -0.000004   0.001321
     9  O    0.013693  -0.003695   0.000004   0.000280   0.000000  -0.000362
    10  O    0.081444  -0.082739  -0.001654  -0.097214   0.000223  -0.007623
    11  H   -0.003067   0.001808  -0.000002   0.000403   0.000000   0.000001
    12  H   -0.047674  -0.013542   0.000001  -0.005984   0.000000   0.008054
    13  C   -0.062876  -0.038789   0.000565   0.007635   0.000000  -0.000471
    14  C   -0.010362  -0.007093   0.000046   0.001163   0.000000  -0.000186
    15  C   -0.007086   0.000113   0.000007   0.000226   0.000000   0.000014
    16  H    0.000000   0.000000   0.000000   0.000000   0.000000   0.000000
    17  C    0.025742   0.007874  -0.000039  -0.000521   0.000000   0.000226
    18  H   -0.000002   0.000001   0.000000   0.000000   0.000000   0.000000
    19  C   -0.017445   0.005876  -0.000547   0.007874   0.000001   0.000113
    20  H   -0.001693  -0.000547   0.000000  -0.000039   0.000000   0.000007
    21  C    0.040231  -0.017449  -0.001693   0.025742  -0.000002  -0.007086
    22  N   -0.002361   0.002878   0.000024   0.000436   0.000000   0.000007
    23  C   -2.522181   2.532912  -0.034229  -1.335048   0.003283  -1.125353
    24  C    1.491325  -0.626012   0.032192   0.388024   0.001204  -2.024252
    25  C    9.539768  -3.077335  -0.079008  -0.051872   0.021362  -0.387395
    26  C   -3.077335  12.707669   0.275721  -1.475549  -0.044107  -0.852236
    27  H   -0.079008   0.275721   0.500531   0.068539  -0.004522   0.020328
    28  C   -0.051872  -1.475549   0.068539   7.591853   0.360329   0.861506
    29  H    0.021362  -0.044107  -0.004522   0.360329   0.535533  -0.014281
    30  C   -0.387395  -0.852236   0.020328   0.861506  -0.014281   9.884831
    31  H    0.012565   0.037190  -0.000146  -0.038997  -0.004155   0.258025
    32  N   -0.102323   0.041791  -0.000862  -0.031546   0.000265  -0.060523
    33  C   -0.412561   0.247352   0.000656  -0.036578   0.000235   0.419040
    34  H    0.006016  -0.006013   0.000000   0.000959   0.000000  -0.006711
    35  C   -0.000924  -0.000297   0.000007   0.000233   0.000000  -0.000007
    36  H   -0.000001   0.000005   0.000000   0.000000   0.000000   0.000000
    37  S    0.057743  -0.003722  -0.000289   0.090434  -0.002581  -0.533533
    38  S    0.000542   0.000130  -0.000002  -0.000017   0.000000   0.000001
             31         32         33         34         35         36
     1  N    0.000042   0.013742  -0.035455  -0.002251   0.000043   0.000000
     2  C    0.000039   0.019180  -0.038042  -0.000406  -0.007519   0.000070
     3  C    0.001267  -0.028592  -0.087406   0.015632  -0.010628   0.000110
     4  C    0.000479   0.011015  -0.030415   0.001891  -0.025160  -0.000632
     5  C    0.000007  -0.034834  -0.025165  -0.000632  -0.030421   0.001891
     6  C   -0.000004   0.009036  -0.010628   0.000110  -0.087397   0.015631
     7  C   -0.000128  -0.008323  -0.007517   0.000070  -0.038049  -0.000405
     8  N    0.000000  -0.000964   0.000043   0.000000  -0.035456  -0.002251
     9  O    0.000000  -0.003397  -0.000342   0.000002   0.000067   0.000000
    10  O    0.000007   0.000220   0.000067   0.000000  -0.000342   0.000002
    11  H    0.000000  -0.000001   0.000000   0.000000  -0.003342  -0.000088
    12  H    0.000000   0.042800  -0.003342  -0.000088   0.000000   0.000000
    13  C    0.000000   0.000167  -0.000411   0.000000  -1.141694   0.066073
    14  C    0.000000  -0.000035  -0.000040   0.000000   0.596727  -0.047368
    15  C    0.000000   0.000007  -0.000007   0.000000   0.419049  -0.006711
    16  H    0.000000   0.000000   0.000000   0.000000  -0.000958  -0.000001
    17  C    0.000000   0.000435   0.000233   0.000000  -0.036595   0.000959
    18  H    0.000000   0.000000   0.000000   0.000000   0.000235   0.000000
    19  C    0.000000   0.002878  -0.000297   0.000005   0.247370  -0.006013
    20  H    0.000000   0.000024   0.000007   0.000000   0.000656   0.000000
    21  C    0.000000  -0.002361  -0.000925  -0.000001  -0.412539   0.006015
    22  N    0.000000  -0.000001   0.000002   0.000000   0.052038  -0.078955
    23  C    0.042220  -0.014164   0.596796  -0.047374  -0.000040   0.000000
    24  C    0.012041   0.223241  -1.141738   0.066078  -0.000411   0.000000
    25  C    0.012565  -0.102323  -0.412561   0.006016  -0.000924  -0.000001
    26  C    0.037190   0.041791   0.247352  -0.006013  -0.000297   0.000005
    27  H   -0.000146  -0.000862   0.000656   0.000000   0.000007   0.000000
    28  C   -0.038997  -0.031546  -0.036578   0.000959   0.000233   0.000000
    29  H   -0.004155   0.000265   0.000235   0.000000   0.000000   0.000000
    30  C    0.258025  -0.060523   0.419040  -0.006711  -0.000007   0.000000
    31  H    0.536683  -0.001106  -0.000958  -0.000001   0.000000   0.000000
    32  N   -0.001106   7.052970   0.052039  -0.078956   0.000002   0.000000
    33  C   -0.000958   0.052039   6.182710   0.435021  -0.000002   0.000000
    34  H   -0.000001  -0.078956   0.435021   0.514510   0.000000   0.000000
    35  C    0.000000   0.000002  -0.000002   0.000000   6.182710   0.435021
    36  H    0.000000   0.000000   0.000000   0.000000   0.435021   0.514510
    37  S   -0.005225   0.007954  -0.140791  -0.075758   0.000001   0.000000
    38  S    0.000000   0.000001   0.000001   0.000000  -0.140796  -0.075758
             37         38
     1  N    0.000931   0.000004
     2  C    0.002433   0.001996
     3  C   -0.018152   0.002572
     4  C   -0.019725   0.014904
     5  C    0.014905  -0.019723
     6  C    0.002572  -0.018156
     7  C    0.001996   0.002435
     8  N    0.000004   0.000931
     9  O    0.000397  -0.000056
    10  O   -0.000056   0.000397
    11  H    0.000000  -0.003722
    12  H   -0.003722   0.000000
    13  C    0.000042   0.319938
    14  C    0.000009  -0.031911
    15  C    0.000001  -0.533536
    16  H    0.000000  -0.005225
    17  C   -0.000017   0.090441
    18  H    0.000000  -0.002581
    19  C    0.000130  -0.003730
    20  H   -0.000002  -0.000289
    21  C    0.000542   0.057736
    22  N    0.000001   0.007956
    23  C   -0.031943   0.000009
    24  C    0.319959   0.000042
    25  C    0.057743   0.000542
    26  C   -0.003722   0.000130
    27  H   -0.000289  -0.000002
    28  C    0.090434  -0.000017
    29  H   -0.002581   0.000000
    30  C   -0.533533   0.000001
    31  H   -0.005225   0.000000
    32  N    0.007954   0.000001
    33  C   -0.140791   0.000001
    34  H   -0.075758   0.000000
    35  C    0.000001  -0.140796
    36  H    0.000000  -0.075758
    37  S   16.093571   0.000000
    38  S    0.000000  16.093573
 Mulliken atomic charges:
              1
     1  N   -0.464996
     2  C    0.563204
     3  C    0.687141
     4  C   -0.228550
     5  C   -0.228550
     6  C    0.687127
     7  C    0.563214
     8  N   -0.464996
     9  O   -0.547885
    10  O   -0.547884
    11  H    0.353139
    12  H    0.353139
    13  C   -0.090111
    14  C   -0.502882
    15  C    0.018128
    16  H    0.150155
    17  C   -0.504462
    18  H    0.149213
    19  C   -0.380713
    20  H    0.191018
    21  C    0.259158
    22  N   -0.109781
    23  C   -0.502848
    24  C   -0.090142
    25  C    0.259148
    26  C   -0.380690
    27  H    0.191018
    28  C   -0.504465
    29  H    0.149213
    30  C    0.018151
    31  H    0.150155
    32  N   -0.109780
    33  C    0.038418
    34  H    0.177895
    35  C    0.038418
    36  H    0.177895
    37  S    0.241893
    38  S    0.241895
 Sum of Mulliken atomic charges =   0.00000
 Mulliken charges with hydrogens summed into heavy atoms:
              1
     1  N   -0.111857
     2  C    0.563204
     3  C    0.687141
     4  C   -0.228550
     5  C   -0.228550
     6  C    0.687127
     7  C    0.563214
     8  N   -0.111857
     9  O   -0.547885
    10  O   -0.547884
    13  C   -0.090111
    14  C   -0.502882
    15  C    0.168283
    17  C   -0.355248
    19  C   -0.189695
    21  C    0.259158
    22  N   -0.109781
    23  C   -0.502848
    24  C   -0.090142
    25  C    0.259148
    26  C   -0.189672
    28  C   -0.355252
    30  C    0.168306
    32  N   -0.109780
    33  C    0.216313
    35  C    0.216313
    37  S    0.241893
    38  S    0.241895
 Sum of Mulliken charges with hydrogens summed into heavy atoms =   0.00000
 Electronic spatial extent (au):  <R**2>=          16148.7696
 Charge=              0.0000 electrons
 Dipole moment (field-independent basis, Debye):
    X=              0.0000    Y=              0.0000    Z=             -0.0001  Tot=              0.0001
 Quadrupole moment (field-independent basis, Debye-Ang):
   XX=           -108.4029   YY=           -176.1999   ZZ=           -179.3250
   XY=              4.1488   XZ=             -0.0031   YZ=             -0.0002
 Traceless Quadrupole moment (field-independent basis, Debye-Ang):
   XX=             46.2397   YY=            -21.5573   ZZ=            -24.6824
   XY=              4.1488   XZ=             -0.0031   YZ=             -0.0002
 Octapole moment (field-independent basis, Debye-Ang**2):
  XXX=             -0.0015  YYY=              0.0000  ZZZ=             -0.0003  XYY=              0.0001
  XXY=              0.0001  XXZ=             -0.0038  XZZ=              0.0000  YZZ=              0.0000
  YYZ=             -0.0008  XYZ=             -0.0009
 Hexadecapole moment (field-independent basis, Debye-Ang**3):
 XXXX=         -16885.6984 YYYY=          -2938.1450 ZZZZ=           -207.8393 XXXY=            202.5215
 XXXZ=              0.3495 YYYX=            106.7604 YYYZ=             -0.1805 ZZZX=              0.5240
 ZZZY=             -0.1970 XXYY=          -2951.5845 XXZZ=          -3467.5423 YYZZ=           -548.1324
 XXYZ=              0.0588 YYXZ=              0.1225 ZZXY=             41.5258
 N-N= 2.609196449771D+03 E-N=-9.752465524769D+03  KE= 1.920361817831D+03
 1\1\GINC-DLT13\SP\RTD-CAM-B3LYP-FC\6-31+G(d,p)\C20H10N4O2S2\NATHALIA.R
 OSA\31-Aug-2023\0\\# td=(nstates=10) cam-b3lyp/6-31+g(d,p) geom=connec
 tivity\\Energy:\\0,1\N,0,1.572774,1.426647,0.000154\C,0,0.211608,1.804
 155,0.000284\C,0,1.755108,0.052801,-0.000043\C,0,0.488716,-0.52241,-0.
 000031\C,0,-0.488716,0.52241,0.000158\C,0,-1.755108,-0.052799,0.000107
 \C,0,-0.211611,-1.804155,-0.000198\N,0,-1.572776,-1.426646,-0.000128\O
 ,0,-0.175588,2.971583,0.000439\O,0,0.175583,-2.971583,-0.000396\H,0,-2
 .347925,-2.082243,-0.000161\H,0,2.347921,2.082247,0.000168\C,0,-4.2776
 23,-0.19449,0.000184\C,0,-5.527948,0.469234,0.000315\C,0,-5.627766,1.8
 63388,0.000503\H,0,-6.592602,2.359772,0.000609\C,0,-4.441888,2.595629,
 0.000567\H,0,-4.483405,3.680291,0.000713\C,0,-3.191304,1.964808,0.0004
 39\H,0,-2.288805,2.56979,0.000495\C,0,-3.073314,0.563692,0.000244\N,0,
 -4.360561,-1.581086,-0.000005\C,0,5.52795,-0.469235,-0.000358\C,0,4.27
 7624,0.194491,-0.000198\C,0,3.073315,-0.563691,-0.000213\C,0,3.191304,
 -1.964807,-0.000391\H,0,2.288805,-2.569788,-0.000408\C,0,4.441887,-2.5
 95628,-0.000549\H,0,4.483403,-3.68029,-0.000681\C,0,5.627765,-1.863388
 ,-0.000531\H,0,6.5926,-2.359774,-0.00066\N,0,4.360564,1.581086,-0.0000
 29\C,0,5.594763,1.976935,-0.000064\H,0,5.888415,3.020338,0.000049\C,0,
 -5.594761,-1.976935,-0.000005\H,0,-5.88841,-3.020339,-0.000141\S,0,6.8
 16507,0.719567,-0.000297\S,0,-6.816504,-0.71957,0.000199\\Version=EM64
 L-G09RevA.02\State=1-A\HF=-1933.5063114\RMSD=7.555e-09\PG=C01 [X(C20H1
 0N4O2S2)]\\@


 THOSE WHO ASPIRE NOT TO GUESS AND DIVINE,
 BUT TO DISCOVER AND KNOW, WHO PROPOSE NOT TO DEVISE 
 MIMIC AND FABULOUS WORLDS OF THEIR OWN, BUT TO 
 EXAMINE AND DISSECT THE NATURE OF THIS VERY WORLD 
 ITSELF, MUST GO TO THE FACTS THEMSELVES FOR EVERYTHING.

                               -- FRANCIS BACON, 1620
 Job cpu time:  0 days  3 hours 41 minutes 45.7 seconds.
 File lengths (MBytes):  RWF=    782 Int=      0 D2E=      0 Chk=    123 Scr=      1
 Normal termination of Gaussian 09 at Thu Aug 31 00:59:52 2023.
