 Entering Gaussian System, Link 0=g09
 Initial command:
 /apps/software//g09/l1.exe /scratch/nathalia.rosa/82019.cluster.abaxnet/Gau-29949.inp -scrdir=/scratch/nathalia.rosa/82019.cluster.abaxnet/
 Entering Link 1 = /apps/software//g09/l1.exe PID=     29950.
  
 Copyright (c) 1988,1990,1992,1993,1995,1998,2003,2009, Gaussian, Inc.
                  All Rights Reserved.
  
 This is part of the Gaussian(R) 09 program.  It is based on
 the Gaussian(R) 03 system (copyright 2003, Gaussian, Inc.),
 the Gaussian(R) 98 system (copyright 1998, Gaussian, Inc.),
 the Gaussian(R) 94 system (copyright 1995, Gaussian, Inc.),
 the Gaussian 92(TM) system (copyright 1992, Gaussian, Inc.),
 the Gaussian 90(TM) system (copyright 1990, Gaussian, Inc.),
 the Gaussian 88(TM) system (copyright 1988, Gaussian, Inc.),
 the Gaussian 86(TM) system (copyright 1986, Carnegie Mellon
 University), and the Gaussian 82(TM) system (copyright 1983,
 Carnegie Mellon University). Gaussian is a federally registered
 trademark of Gaussian, Inc.
  
 This software contains proprietary and confidential information,
 including trade secrets, belonging to Gaussian, Inc.
  
 This software is provided under written license and may be
 used, copied, transmitted, or stored only in accord with that
 written license.
  
 The following legend is applicable only to US Government
 contracts under FAR:
  
                    RESTRICTED RIGHTS LEGEND
  
 Use, reproduction and disclosure by the US Government is
 subject to restrictions as set forth in subparagraphs (a)
 and (c) of the Commercial Computer Software - Restricted
 Rights clause in FAR 52.227-19.
  
 Gaussian, Inc.
 340 Quinnipiac St., Bldg. 40, Wallingford CT 06492
  
  
 ---------------------------------------------------------------
 Warning -- This program may not be used in any manner that
 competes with the business of Gaussian, Inc. or will provide
 assistance to any competitor of Gaussian, Inc.  The licensee
 of this program is prohibited from giving any competitor of
 Gaussian, Inc. access to this program.  By using this program,
 the user acknowledges that Gaussian, Inc. is engaged in the
 business of creating and licensing software in the field of
 computational chemistry and represents and warrants to the
 licensee that it is not a competitor of Gaussian, Inc. and that
 it will not use this program in any manner prohibited above.
 ---------------------------------------------------------------
  

 Cite this work as:
 Gaussian 09, Revision A.02,
 M. J. Frisch, G. W. Trucks, H. B. Schlegel, G. E. Scuseria, 
 M. A. Robb, J. R. Cheeseman, G. Scalmani, V. Barone, B. Mennucci, 
 G. A. Petersson, H. Nakatsuji, M. Caricato, X. Li, H. P. Hratchian, 
 A. F. Izmaylov, J. Bloino, G. Zheng, J. L. Sonnenberg, M. Hada, 
 M. Ehara, K. Toyota, R. Fukuda, J. Hasegawa, M. Ishida, T. Nakajima, 
 Y. Honda, O. Kitao, H. Nakai, T. Vreven, J. A. Montgomery, Jr., 
 J. E. Peralta, F. Ogliaro, M. Bearpark, J. J. Heyd, E. Brothers, 
 K. N. Kudin, V. N. Staroverov, R. Kobayashi, J. Normand, 
 K. Raghavachari, A. Rendell, J. C. Burant, S. S. Iyengar, J. Tomasi, 
 M. Cossi, N. Rega, J. M. Millam, M. Klene, J. E. Knox, J. B. Cross, 
 V. Bakken, C. Adamo, J. Jaramillo, R. Gomperts, R. E. Stratmann, 
 O. Yazyev, A. J. Austin, R. Cammi, C. Pomelli, J. W. Ochterski, 
 R. L. Martin, K. Morokuma, V. G. Zakrzewski, G. A. Voth, 
 P. Salvador, J. J. Dannenberg, S. Dapprich, A. D. Daniels, 
 O. Farkas, J. B. Foresman, J. V. Ortiz, J. Cioslowski, 
 and D. J. Fox, Gaussian, Inc., Wallingford CT, 2009.
 
 ******************************************
 Gaussian 09:  EM64L-G09RevA.02 11-Jun-2009
                24-Aug-2023 
 ******************************************
 %mem=6GB
 %chk=/home/nathalia.rosa/DPP-SUB/DPP-SUB-8/DPP-SUB-8-OPT-FREQ.chk
 ----------------------------------------------------
 # opt=tight freq b3lyp/6-31+g(d,p) geom=connectivity
 ----------------------------------------------------
 1/7=10,14=-1,18=20,19=15,26=3,38=1,57=2/1,3;
 2/9=110,12=2,17=6,18=5,40=1/2;
 3/5=1,6=6,7=111,11=2,16=1,25=1,30=1,71=1,74=-5/1,2,3;
 4//1;
 5/5=2,38=5/2;
 6/7=2,8=2,9=2,10=2,28=1/1;
 7//1,2,3,16;
 1/7=10,14=-1,18=20,19=15/3(2);
 2/9=110/2;
 99//99;
 2/9=110/2;
 3/5=1,6=6,7=111,11=2,16=1,25=1,30=1,71=1,74=-5/1,2,3;
 4/5=5,16=3/1;
 5/5=2,38=5/2;
 7//1,2,3,16;
 1/7=10,14=-1,18=20,19=15/3(-5);
 2/9=110/2;
 6/7=2,8=2,9=2,10=2,19=2,28=1/1;
 99/9=1/99;
 -------
 Energy:
 -------
 Symbolic Z-matrix:
 Charge =  0 Multiplicity = 1
 N                     1.57277   1.42673  -0.00191 
 C                     0.21159   1.80424  -0.00119 
 C                     1.75512   0.05288  -0.00032 
 C                     0.48871  -0.52231   0.00077 
 C                    -0.48872   0.52248   0.00023 
 C                    -1.75511  -0.05276   0.00094 
 C                    -0.21157  -1.80407   0.00183 
 N                    -1.57274  -1.42661   0.0023 
 O                    -0.17561   2.97166  -0.00177 
 O                     0.1757   -2.97148   0.00214 
 H                    -2.34788  -2.08222   0.00211 
 H                     2.3479    2.08234  -0.00199 
 C                    -4.27762  -0.19451   0.00009 
 C                    -5.52797   0.46918  -0.00014 
 C                    -5.62782   1.86333   0.00065 
 H                    -6.59267   2.35968   0.0005 
 C                    -4.44197   2.5956    0.00164 
 H                    -4.48352   3.68026   0.00221 
 C                    -3.19136   1.96482   0.00183 
 H                    -2.28889   2.56983   0.0023 
 C                    -3.07333   0.56371   0.0012 
 N                    -4.36051  -1.5811   -0.00068 
 C                     5.52792  -0.46929  -0.00022 
 C                     4.27764   0.19449  -0.00029 
 C                     3.0733   -0.56365  -0.00086 
 C                     3.19123  -1.96477  -0.00098 
 H                     2.28869  -2.56968  -0.00086 
 C                     4.44178  -2.59564  -0.00097 
 H                     4.48325  -3.6803   -0.00119 
 C                     5.62769  -1.86344  -0.00055 
 H                     6.59251  -2.35987  -0.0005 
 N                     4.36063   1.58109  -0.00002 
 C                     5.59485   1.97688   0.00041 
 H                     5.88854   3.02027   0.00071 
 C                    -5.59469  -1.977    -0.00156 
 H                    -5.88833  -3.0204   -0.00227 
 S                     6.81654   0.71946   0.00041 
 S                    -6.81649  -0.71966  -0.00148 
 

 GradGradGradGradGradGradGradGradGradGradGradGradGradGradGradGradGradGrad
 Berny optimization.
 Initialization pass.
                           ----------------------------
                           !    Initial Parameters    !
                           ! (Angstroms and Degrees)  !
 --------------------------                            --------------------------
 ! Name  Definition              Value          Derivative Info.                !
 --------------------------------------------------------------------------------
 ! R1    R(1,2)                  1.4126         estimate D2E/DX2                !
 ! R2    R(1,3)                  1.3859         estimate D2E/DX2                !
 ! R3    R(1,12)                 1.0152         estimate D2E/DX2                !
 ! R4    R(2,5)                  1.4606         estimate D2E/DX2                !
 ! R5    R(2,9)                  1.23           estimate D2E/DX2                !
 ! R6    R(3,4)                  1.3909         estimate D2E/DX2                !
 ! R7    R(3,25)                 1.4552         estimate D2E/DX2                !
 ! R8    R(4,5)                  1.4307         estimate D2E/DX2                !
 ! R9    R(4,7)                  1.4606         estimate D2E/DX2                !
 ! R10   R(5,6)                  1.3909         estimate D2E/DX2                !
 ! R11   R(6,8)                  1.3859         estimate D2E/DX2                !
 ! R12   R(6,21)                 1.4552         estimate D2E/DX2                !
 ! R13   R(7,8)                  1.4125         estimate D2E/DX2                !
 ! R14   R(7,10)                 1.23           estimate D2E/DX2                !
 ! R15   R(8,11)                 1.0152         estimate D2E/DX2                !
 ! R16   R(9,20)                 2.1511         estimate D2E/DX2                !
 ! R17   R(10,27)                2.1509         estimate D2E/DX2                !
 ! R18   R(11,22)                2.0741         estimate D2E/DX2                !
 ! R19   R(12,32)                2.0742         estimate D2E/DX2                !
 ! R20   R(13,14)                1.4156         estimate D2E/DX2                !
 ! R21   R(13,21)                1.4231         estimate D2E/DX2                !
 ! R22   R(13,22)                1.3891         estimate D2E/DX2                !
 ! R23   R(14,15)                1.3977         estimate D2E/DX2                !
 ! R24   R(14,38)                1.7532         estimate D2E/DX2                !
 ! R25   R(15,16)                1.085          estimate D2E/DX2                !
 ! R26   R(15,17)                1.3937         estimate D2E/DX2                !
 ! R27   R(17,18)                1.0855         estimate D2E/DX2                !
 ! R28   R(17,19)                1.4007         estimate D2E/DX2                !
 ! R29   R(19,20)                1.0865         estimate D2E/DX2                !
 ! R30   R(19,21)                1.4061         estimate D2E/DX2                !
 ! R31   R(22,35)                1.2961         estimate D2E/DX2                !
 ! R32   R(23,24)                1.4156         estimate D2E/DX2                !
 ! R33   R(23,30)                1.3977         estimate D2E/DX2                !
 ! R34   R(23,37)                1.7532         estimate D2E/DX2                !
 ! R35   R(24,25)                1.4231         estimate D2E/DX2                !
 ! R36   R(24,32)                1.3891         estimate D2E/DX2                !
 ! R37   R(25,26)                1.4061         estimate D2E/DX2                !
 ! R38   R(26,27)                1.0865         estimate D2E/DX2                !
 ! R39   R(26,28)                1.4007         estimate D2E/DX2                !
 ! R40   R(28,29)                1.0855         estimate D2E/DX2                !
 ! R41   R(28,30)                1.3937         estimate D2E/DX2                !
 ! R42   R(30,31)                1.085          estimate D2E/DX2                !
 ! R43   R(32,33)                1.2961         estimate D2E/DX2                !
 ! R44   R(33,34)                1.0839         estimate D2E/DX2                !
 ! R45   R(33,37)                1.7532         estimate D2E/DX2                !
 ! R46   R(35,36)                1.0839         estimate D2E/DX2                !
 ! R47   R(35,38)                1.7532         estimate D2E/DX2                !
 ! A1    A(2,1,3)              113.0618         estimate D2E/DX2                !
 ! A2    A(2,1,12)             124.2745         estimate D2E/DX2                !
 ! A3    A(3,1,12)             122.6637         estimate D2E/DX2                !
 ! A4    A(1,2,5)              103.1497         estimate D2E/DX2                !
 ! A5    A(1,2,9)              123.8504         estimate D2E/DX2                !
 ! A6    A(5,2,9)              132.9999         estimate D2E/DX2                !
 ! A7    A(1,3,4)              106.8667         estimate D2E/DX2                !
 ! A8    A(1,3,25)             122.6268         estimate D2E/DX2                !
 ! A9    A(4,3,25)             130.5065         estimate D2E/DX2                !
 ! A10   A(3,4,5)              108.6649         estimate D2E/DX2                !
 ! A11   A(3,4,7)              143.0772         estimate D2E/DX2                !
 ! A12   A(5,4,7)              108.2579         estimate D2E/DX2                !
 ! A13   A(2,5,4)              108.2569         estimate D2E/DX2                !
 ! A14   A(2,5,6)              143.0798         estimate D2E/DX2                !
 ! A15   A(4,5,6)              108.6633         estimate D2E/DX2                !
 ! A16   A(5,6,8)              106.8676         estimate D2E/DX2                !
 ! A17   A(5,6,21)             130.5079         estimate D2E/DX2                !
 ! A18   A(8,6,21)             122.6245         estimate D2E/DX2                !
 ! A19   A(4,7,8)              103.1505         estimate D2E/DX2                !
 ! A20   A(4,7,10)             132.9979         estimate D2E/DX2                !
 ! A21   A(8,7,10)             123.8516         estimate D2E/DX2                !
 ! A22   A(6,8,7)              113.0607         estimate D2E/DX2                !
 ! A23   A(6,8,11)             122.6629         estimate D2E/DX2                !
 ! A24   A(7,8,11)             124.2763         estimate D2E/DX2                !
 ! A25   A(14,13,21)           119.8467         estimate D2E/DX2                !
 ! A26   A(14,13,22)           114.5378         estimate D2E/DX2                !
 ! A27   A(21,13,22)           125.6155         estimate D2E/DX2                !
 ! A28   A(13,14,15)           122.0557         estimate D2E/DX2                !
 ! A29   A(13,14,38)           109.3452         estimate D2E/DX2                !
 ! A30   A(15,14,38)           128.5991         estimate D2E/DX2                !
 ! A31   A(14,15,16)           121.3197         estimate D2E/DX2                !
 ! A32   A(14,15,17)           117.5991         estimate D2E/DX2                !
 ! A33   A(16,15,17)           121.0812         estimate D2E/DX2                !
 ! A34   A(15,17,18)           119.5017         estimate D2E/DX2                !
 ! A35   A(15,17,19)           121.5387         estimate D2E/DX2                !
 ! A36   A(18,17,19)           118.9596         estimate D2E/DX2                !
 ! A37   A(17,19,20)           119.3969         estimate D2E/DX2                !
 ! A38   A(17,19,21)           121.5809         estimate D2E/DX2                !
 ! A39   A(20,19,21)           119.0222         estimate D2E/DX2                !
 ! A40   A(6,21,13)            122.7428         estimate D2E/DX2                !
 ! A41   A(6,21,19)            119.8783         estimate D2E/DX2                !
 ! A42   A(13,21,19)           117.3789         estimate D2E/DX2                !
 ! A43   A(13,22,35)           111.2064         estimate D2E/DX2                !
 ! A44   A(24,23,30)           122.0568         estimate D2E/DX2                !
 ! A45   A(24,23,37)           109.3446         estimate D2E/DX2                !
 ! A46   A(30,23,37)           128.5986         estimate D2E/DX2                !
 ! A47   A(23,24,25)           119.8456         estimate D2E/DX2                !
 ! A48   A(23,24,32)           114.5387         estimate D2E/DX2                !
 ! A49   A(25,24,32)           125.6157         estimate D2E/DX2                !
 ! A50   A(3,25,24)            122.7433         estimate D2E/DX2                !
 ! A51   A(3,25,26)            119.8773         estimate D2E/DX2                !
 ! A52   A(24,25,26)           117.3794         estimate D2E/DX2                !
 ! A53   A(25,26,27)           119.0202         estimate D2E/DX2                !
 ! A54   A(25,26,28)           121.5809         estimate D2E/DX2                !
 ! A55   A(27,26,28)           119.3989         estimate D2E/DX2                !
 ! A56   A(26,28,29)           118.959          estimate D2E/DX2                !
 ! A57   A(26,28,30)           121.5385         estimate D2E/DX2                !
 ! A58   A(29,28,30)           119.5025         estimate D2E/DX2                !
 ! A59   A(23,30,28)           117.5988         estimate D2E/DX2                !
 ! A60   A(23,30,31)           121.3199         estimate D2E/DX2                !
 ! A61   A(28,30,31)           121.0813         estimate D2E/DX2                !
 ! A62   A(24,32,33)           111.2051         estimate D2E/DX2                !
 ! A63   A(32,33,34)           123.5009         estimate D2E/DX2                !
 ! A64   A(32,33,37)           116.3945         estimate D2E/DX2                !
 ! A65   A(34,33,37)           120.1046         estimate D2E/DX2                !
 ! A66   A(22,35,36)           123.503          estimate D2E/DX2                !
 ! A67   A(22,35,38)           116.3936         estimate D2E/DX2                !
 ! A68   A(36,35,38)           120.1034         estimate D2E/DX2                !
 ! A69   A(23,37,33)            88.517          estimate D2E/DX2                !
 ! A70   A(14,38,35)            88.517          estimate D2E/DX2                !
 ! D1    D(3,1,2,5)             -0.033          estimate D2E/DX2                !
 ! D2    D(3,1,2,9)            179.9681         estimate D2E/DX2                !
 ! D3    D(12,1,2,5)          -179.9356         estimate D2E/DX2                !
 ! D4    D(12,1,2,9)             0.0654         estimate D2E/DX2                !
 ! D5    D(2,1,3,4)              0.0322         estimate D2E/DX2                !
 ! D6    D(2,1,3,25)           179.9922         estimate D2E/DX2                !
 ! D7    D(12,1,3,4)           179.9366         estimate D2E/DX2                !
 ! D8    D(12,1,3,25)           -0.1034         estimate D2E/DX2                !
 ! D9    D(1,2,5,4)              0.021          estimate D2E/DX2                !
 ! D10   D(1,2,5,6)           -179.9577         estimate D2E/DX2                !
 ! D11   D(9,2,5,4)           -179.9801         estimate D2E/DX2                !
 ! D12   D(9,2,5,6)              0.0411         estimate D2E/DX2                !
 ! D13   D(1,3,4,5)             -0.0168         estimate D2E/DX2                !
 ! D14   D(1,3,4,7)            179.9542         estimate D2E/DX2                !
 ! D15   D(25,3,4,5)          -179.9725         estimate D2E/DX2                !
 ! D16   D(25,3,4,7)            -0.0015         estimate D2E/DX2                !
 ! D17   D(1,3,25,24)            0.1327         estimate D2E/DX2                !
 ! D18   D(1,3,25,26)         -179.9153         estimate D2E/DX2                !
 ! D19   D(4,3,25,24)         -179.9177         estimate D2E/DX2                !
 ! D20   D(4,3,25,26)            0.0344         estimate D2E/DX2                !
 ! D21   D(3,4,5,2)             -0.0031         estimate D2E/DX2                !
 ! D22   D(3,4,5,6)            179.9834         estimate D2E/DX2                !
 ! D23   D(7,4,5,2)           -179.9848         estimate D2E/DX2                !
 ! D24   D(7,4,5,6)              0.0017         estimate D2E/DX2                !
 ! D25   D(3,4,7,8)           -179.9902         estimate D2E/DX2                !
 ! D26   D(3,4,7,10)             0.0013         estimate D2E/DX2                !
 ! D27   D(5,4,7,8)             -0.0191         estimate D2E/DX2                !
 ! D28   D(5,4,7,10)           179.9723         estimate D2E/DX2                !
 ! D29   D(2,5,6,8)            179.9957         estimate D2E/DX2                !
 ! D30   D(2,5,6,21)            -0.0425         estimate D2E/DX2                !
 ! D31   D(4,5,6,8)              0.017          estimate D2E/DX2                !
 ! D32   D(4,5,6,21)           179.9788         estimate D2E/DX2                !
 ! D33   D(5,6,8,7)             -0.0311         estimate D2E/DX2                !
 ! D34   D(5,6,8,11)          -179.9379         estimate D2E/DX2                !
 ! D35   D(21,6,8,7)          -179.9966         estimate D2E/DX2                !
 ! D36   D(21,6,8,11)            0.0966         estimate D2E/DX2                !
 ! D37   D(5,6,21,13)          179.9105         estimate D2E/DX2                !
 ! D38   D(5,6,21,19)           -0.0533         estimate D2E/DX2                !
 ! D39   D(8,6,21,13)           -0.1329         estimate D2E/DX2                !
 ! D40   D(8,6,21,19)          179.9033         estimate D2E/DX2                !
 ! D41   D(4,7,8,6)              0.0311         estimate D2E/DX2                !
 ! D42   D(4,7,8,11)           179.9361         estimate D2E/DX2                !
 ! D43   D(10,7,8,6)          -179.9614         estimate D2E/DX2                !
 ! D44   D(10,7,8,11)           -0.0563         estimate D2E/DX2                !
 ! D45   D(21,13,14,15)          0.0022         estimate D2E/DX2                !
 ! D46   D(21,13,14,38)       -179.997          estimate D2E/DX2                !
 ! D47   D(22,13,14,15)        179.9952         estimate D2E/DX2                !
 ! D48   D(22,13,14,38)         -0.004          estimate D2E/DX2                !
 ! D49   D(14,13,21,6)        -179.974          estimate D2E/DX2                !
 ! D50   D(14,13,21,19)         -0.0093         estimate D2E/DX2                !
 ! D51   D(22,13,21,6)           0.0339         estimate D2E/DX2                !
 ! D52   D(22,13,21,19)        179.9986         estimate D2E/DX2                !
 ! D53   D(14,13,22,35)          0.0048         estimate D2E/DX2                !
 ! D54   D(21,13,22,35)        179.9973         estimate D2E/DX2                !
 ! D55   D(13,14,15,16)       -179.9974         estimate D2E/DX2                !
 ! D56   D(13,14,15,17)          0.0019         estimate D2E/DX2                !
 ! D57   D(38,14,15,16)          0.0016         estimate D2E/DX2                !
 ! D58   D(38,14,15,17)       -179.999          estimate D2E/DX2                !
 ! D59   D(13,14,38,35)          0.0017         estimate D2E/DX2                !
 ! D60   D(15,14,38,35)       -179.9974         estimate D2E/DX2                !
 ! D61   D(14,15,17,18)        179.9963         estimate D2E/DX2                !
 ! D62   D(14,15,17,19)          0.0012         estimate D2E/DX2                !
 ! D63   D(16,15,17,18)         -0.0043         estimate D2E/DX2                !
 ! D64   D(16,15,17,19)       -179.9994         estimate D2E/DX2                !
 ! D65   D(15,17,19,20)        179.9808         estimate D2E/DX2                !
 ! D66   D(15,17,19,21)         -0.0088         estimate D2E/DX2                !
 ! D67   D(18,17,19,20)         -0.0144         estimate D2E/DX2                !
 ! D68   D(18,17,19,21)        179.9961         estimate D2E/DX2                !
 ! D69   D(17,19,21,6)         179.9783         estimate D2E/DX2                !
 ! D70   D(17,19,21,13)          0.0126         estimate D2E/DX2                !
 ! D71   D(20,19,21,6)          -0.0113         estimate D2E/DX2                !
 ! D72   D(20,19,21,13)       -179.977          estimate D2E/DX2                !
 ! D73   D(13,22,35,36)        179.9993         estimate D2E/DX2                !
 ! D74   D(13,22,35,38)         -0.0034         estimate D2E/DX2                !
 ! D75   D(30,23,24,25)         -0.0077         estimate D2E/DX2                !
 ! D76   D(30,23,24,32)       -179.9956         estimate D2E/DX2                !
 ! D77   D(37,23,24,25)        179.9957         estimate D2E/DX2                !
 ! D78   D(37,23,24,32)          0.0078         estimate D2E/DX2                !
 ! D79   D(24,23,30,28)          0.0008         estimate D2E/DX2                !
 ! D80   D(24,23,30,31)        179.9997         estimate D2E/DX2                !
 ! D81   D(37,23,30,28)        179.9967         estimate D2E/DX2                !
 ! D82   D(37,23,30,31)         -0.0044         estimate D2E/DX2                !
 ! D83   D(24,23,37,33)         -0.0041         estimate D2E/DX2                !
 ! D84   D(30,23,37,33)        179.9996         estimate D2E/DX2                !
 ! D85   D(23,24,25,3)         179.9701         estimate D2E/DX2                !
 ! D86   D(23,24,25,26)          0.0169         estimate D2E/DX2                !
 ! D87   D(32,24,25,3)          -0.0434         estimate D2E/DX2                !
 ! D88   D(32,24,25,26)       -179.9966         estimate D2E/DX2                !
 ! D89   D(23,24,32,33)         -0.0082         estimate D2E/DX2                !
 ! D90   D(25,24,32,33)       -179.9953         estimate D2E/DX2                !
 ! D91   D(3,25,26,27)           0.0121         estimate D2E/DX2                !
 ! D92   D(3,25,26,28)        -179.9747         estimate D2E/DX2                !
 ! D93   D(24,25,26,27)        179.9667         estimate D2E/DX2                !
 ! D94   D(24,25,26,28)         -0.0201         estimate D2E/DX2                !
 ! D95   D(25,26,28,29)       -179.9921         estimate D2E/DX2                !
 ! D96   D(25,26,28,30)          0.0139         estimate D2E/DX2                !
 ! D97   D(27,26,28,29)          0.0211         estimate D2E/DX2                !
 ! D98   D(27,26,28,30)       -179.9729         estimate D2E/DX2                !
 ! D99   D(26,28,30,23)         -0.0037         estimate D2E/DX2                !
 ! D100  D(26,28,30,31)        179.9974         estimate D2E/DX2                !
 ! D101  D(29,28,30,23)       -179.9977         estimate D2E/DX2                !
 ! D102  D(29,28,30,31)          0.0034         estimate D2E/DX2                !
 ! D103  D(24,32,33,34)       -179.9979         estimate D2E/DX2                !
 ! D104  D(24,32,33,37)          0.0049         estimate D2E/DX2                !
 ! D105  D(32,33,37,23)         -0.0004         estimate D2E/DX2                !
 ! D106  D(34,33,37,23)       -179.9977         estimate D2E/DX2                !
 ! D107  D(22,35,38,14)          0.0009         estimate D2E/DX2                !
 ! D108  D(36,35,38,14)        179.9984         estimate D2E/DX2                !
 --------------------------------------------------------------------------------
 Trust Radius=3.00D-01 FncErr=1.00D-07 GrdErr=1.00D-06
 Number of steps in this run= 228 maximum allowed number of steps= 228.
 GradGradGradGradGradGradGradGradGradGradGradGradGradGradGradGradGradGrad

                          Input orientation:                          
 ---------------------------------------------------------------------
 Center     Atomic      Atomic             Coordinates (Angstroms)
 Number     Number       Type             X           Y           Z
 ---------------------------------------------------------------------
      1          7           0        1.572765    1.426726   -0.001906
      2          6           0        0.211593    1.804241   -0.001192
      3          6           0        1.755117    0.052883   -0.000321
      4          6           0        0.488714   -0.522314    0.000772
      5          6           0       -0.488722    0.522477    0.000232
      6          6           0       -1.755111   -0.052757    0.000943
      7          6           0       -0.211569   -1.804074    0.001828
      8          7           0       -1.572740   -1.426607    0.002300
      9          8           0       -0.175609    2.971661   -0.001766
     10          8           0        0.175696   -2.971475    0.002143
     11          1           0       -2.347880   -2.082217    0.002113
     12          1           0        2.347903    2.082335   -0.001993
     13          6           0       -4.277618   -0.194505    0.000093
     14          6           0       -5.527972    0.469176   -0.000138
     15          6           0       -5.627823    1.863325    0.000649
     16          1           0       -6.592673    2.359683    0.000503
     17          6           0       -4.441965    2.595602    0.001644
     18          1           0       -4.483519    3.680262    0.002213
     19          6           0       -3.191362    1.964819    0.001829
     20          1           0       -2.288886    2.569830    0.002298
     21          6           0       -3.073330    0.563705    0.001203
     22          7           0       -4.360514   -1.581101   -0.000676
     23          6           0        5.527924   -0.469288   -0.000221
     24          6           0        4.277637    0.194489   -0.000285
     25          6           0        3.073298   -0.563648   -0.000861
     26          6           0        3.191228   -1.964767   -0.000979
     27          1           0        2.288687   -2.569682   -0.000863
     28          6           0        4.441781   -2.595638   -0.000967
     29          1           0        4.483246   -3.680300   -0.001192
     30          6           0        5.627687   -1.863443   -0.000550
     31          1           0        6.592505   -2.359865   -0.000501
     32          7           0        4.360625    1.581086   -0.000021
     33          6           0        5.594847    1.976877    0.000406
     34          1           0        5.888541    3.020267    0.000705
     35          6           0       -5.594690   -1.976998   -0.001558
     36          1           0       -5.888330   -3.020403   -0.002274
     37         16           0        6.816542    0.719463    0.000410
     38         16           0       -6.816492   -0.719657   -0.001478
 ---------------------------------------------------------------------
                    Distance matrix (angstroms):
                    1          2          3          4          5
     1  N    0.000000
     2  C    1.412553   0.000000
     3  C    1.385893   2.334464   0.000000
     4  C    2.230231   2.343002   1.390910   0.000000
     5  C    2.251089   1.460603   2.292451   1.430723   0.000000
     6  C    3.641928   2.704879   3.511817   2.292430   1.390912
     7  C    3.690790   3.633044   2.704838   1.460584   2.343001
     8  N    4.246849   3.690831   3.641913   2.251075   2.230253
     9  O    2.333160   1.229957   3.499567   3.556570   2.469118
    10  O    4.614758   4.775852   3.411938   2.469083   3.556565
    11  H    5.261573   4.653544   4.625283   3.237216   3.200141
    12  H    1.015215   2.154335   2.114255   3.200123   3.237222
    13  C    6.070863   4.914062   6.037805   4.777591   3.856137
    14  C    7.165010   5.892793   7.294977   6.097833   5.039532
    15  C    7.213813   5.839715   7.601678   6.565310   5.311142
    16  H    8.218564   6.826899   8.660654   7.645387   6.374445
    17  C    6.127256   4.720367   6.698451   5.833781   4.463853
    18  H    6.461967   5.056040   7.216541   6.510357   5.092152
    19  C    4.794420   3.406743   5.303127   4.441710   3.063432
    20  H    4.027289   2.615059   4.763296   4.156491   2.726215
    21  C    4.725570   3.511361   4.855393   3.723922   2.584937
    22  N    6.652129   5.688998   6.330154   4.963471   4.406338
    23  C    4.386132   5.782068   3.808771   5.039489   6.097838
    24  C    2.972330   4.373101   2.526492   3.856131   4.777631
    25  C    2.492627   3.714331   1.455236   2.584915   3.723930
    26  C    3.757878   4.804544   2.476555   3.063373   4.441668
    27  H    4.060027   4.842058   2.676293   2.726100   4.156375
    28  C    4.940715   6.103558   3.772642   4.463789   5.833738
    29  H    5.878147   6.951777   4.623780   5.092069   6.510284
    30  C    5.221839   6.541099   4.320776   5.311090   6.565293
    31  H    6.287771   7.619437   5.405708   6.374391   7.645369
    32  N    2.792131   4.155029   3.020609   4.406358   4.963549
    33  C    4.059534   5.386022   4.294797   5.684941   6.255005
    34  H    4.600576   5.805727   5.088277   6.458174   6.848974
    35  C    7.934592   6.928975   7.624964   6.254911   5.684918
    36  H    8.685902   7.777291   8.238166   6.848879   6.458155
    37  S    5.291259   6.693437   5.105130   6.448521   7.307919
    38  S    8.659480   7.467532   8.606352   7.307871   6.448533
                    6          7          8          9         10
     6  C    0.000000
     7  C    2.334445   0.000000
     8  N    1.385902   1.412540   0.000000
     9  O    3.412028   4.775872   4.614841   0.000000
    10  O    3.499562   1.229959   2.333162   5.953511   0.000000
    11  H    2.114257   2.154342   1.015217   5.500951   2.675671
    12  H    4.625295   4.653503   5.261571   2.675633   5.500863
    13  C    2.526487   4.373039   2.972279   5.181804   5.248197
    14  C    3.808792   5.782025   4.386098   5.908487   6.661074
    15  C    4.320795   6.541072   5.221815   5.563726   7.553551
    16  H    5.405726   7.619407   6.287744   6.446180   8.615803
    17  C    3.772664   6.103556   4.940710   4.282899   7.232921
    18  H    4.623813   6.951798   5.878158   4.365801   8.121200
    19  C    2.476576   4.804552   3.757886   3.179388   5.975289
    20  H    2.676356   4.842136   4.060095   2.151145   6.064670
    21  C    1.455241   3.714304   2.492612   3.767632   4.801424
    22  N    3.020590   4.154933   2.792053   6.183937   4.744507
    23  C    7.294936   5.892660   7.164907   6.661113   5.908239
    24  C    6.037813   4.913983   6.070821   5.248246   5.181627
    25  C    4.855363   3.511270   4.725503   4.801438   3.767458
    26  C    5.303023   3.406590   4.794269   5.975275   3.179136
    27  H    4.763110   2.614850   4.027065   6.064589   2.150855
    28  C    6.698337   4.720196   6.127080   7.232918   4.282610
    29  H    7.216382   5.055840   6.461742   8.121177   4.365482
    30  C    7.601598   5.839558   7.213666   7.553574   5.563447
    31  H    8.660568   6.826737   8.218406   8.615831   6.445891
    32  N    6.330219   5.688960   6.652146   4.744589   6.183805
    33  C    7.625044   6.928929   7.934608   5.855575   7.338487
    34  H    8.238258   7.777249   8.685931   6.064345   8.278742
    35  C    4.294773   5.385899   4.059437   7.338642   5.855455
    36  H    5.088264   5.805608   4.600492   8.278890   6.064225
    37  S    8.606367   7.467435   8.659427   7.345922   7.597622
    38  S    5.105129   6.693353   5.291193   7.597839   7.345842
                   11         12         13         14         15
    11  H    0.000000
    12  H    6.276455   0.000000
    13  C    2.699509   7.005821   0.000000
    14  C    4.077082   8.039384   1.415577   0.000000
    15  C    5.130822   7.978733   2.461243   1.397720   0.000000
    16  H    6.144001   8.944877   3.447224   2.169702   1.085038
    17  C    5.125152   6.809241   2.794944   2.387698   1.393732
    18  H    6.145496   7.015819   3.880234   3.376679   2.147253
    19  C    4.134001   5.540513   2.417154   2.774292   2.438574
    20  H    4.652421   4.662347   3.405379   3.860626   3.412866
    21  C    2.743571   5.629921   1.423093   2.456462   2.866086
    22  N    2.074083   7.643535   1.389072   2.359363   3.670170
    23  C    8.039268   4.077170   9.809391  11.095655  11.397007
    24  C    7.005774   2.699600   8.564094   9.809456  10.045056
    25  C    5.629852   2.743615   7.360179   8.663058   9.033256
    26  C    5.540354   4.134033   7.675773   9.052543   9.614050
    27  H    4.662122   4.652394   6.982681   8.386586   9.073185
    28  C    6.809046   5.125208   9.043968  10.430199  11.012687
    29  H    7.015566   6.145539   9.428866  10.837095  11.531067
    30  C    7.978567   5.130901  10.044920  11.396922  11.856446
    31  H    8.944696   6.144086  11.083698  12.446262  12.929492
    32  N    7.643548   2.074200   8.818842   9.950914   9.992435
    33  C    8.919818   3.248657  10.108435  11.224539  11.223244
    34  H    9.688858   3.662764  10.662343  11.698070  11.574332
    35  C    3.248517   8.919808   2.216295   2.447084   3.840467
    36  H    3.662649   9.688832   3.252706   3.508137   4.890672
    37  S    9.583112   4.671848  11.131744  12.347051  12.496825
    38  S    4.671732   9.583178   2.592618   1.753171   2.843367
                   16         17         18         19         20
    16  H    0.000000
    17  C    2.163609   0.000000
    18  H    2.488466   1.085456   0.000000
    19  C    3.424155   1.400677   2.147653   0.000000
    20  H    4.308915   2.153233   2.459568   1.086509   0.000000
    21  C    3.951115   2.449850   3.420755   1.406077   2.154041
    22  N    4.529052   4.177498   5.262801   3.733694   4.639168
    23  C   12.446363  10.430352  10.837332   9.052670   8.386821
    24  C   11.083849   9.044159   9.429129   7.675938   6.982942
    25  C   10.098359   8.152303   8.666964   6.755673   6.210613
    26  C   10.696990   8.891716   9.527230   7.495272   7.112962
    27  H   10.157618   8.484211   9.215454   7.112851   6.882497
    28  C   12.096048  10.289311  10.910908   8.891718   8.484335
    29  H   12.615759  10.910836  11.600895   9.527171   9.215525
    30  C   12.929501  11.012764  11.531225   9.614116   9.073370
    31  H   14.004394  12.096123  12.615920  10.697053  10.157805
    32  N   10.980936   8.860860   9.089853   7.561730   6.722620
    33  C   12.193530  10.055865  10.221301   8.786217   7.906000
    34  H   12.498683  10.339231  10.393037   9.141040   8.189823
    35  C    4.450031   4.715661   5.765354   4.616700   5.621566
    36  H    5.425996   5.799267   6.846344   5.667988   6.648814
    37  S   13.509159  11.413758  11.681512  10.085091   9.291538
    38  S    3.087464   4.077908   4.980167   4.510875   5.596423
                   21         22         23         24         25
    21  C    0.000000
    22  N    2.501407   0.000000
    23  C    8.663062   9.950745   0.000000
    24  C    7.360234   8.818751   1.415563   0.000000
    25  C    6.249157   7.503117   2.456439   1.423097   0.000000
    26  C    6.755580   7.561482   2.774276   2.417162   1.406073
    27  H    6.210422   6.722289   3.860610   3.405373   2.154016
    28  C    8.152199   8.860569   2.387692   2.794951   2.449843
    29  H    8.666800   9.089484   3.376678   3.880240   3.420742
    30  C    9.033202   9.992191   1.397720   2.461243   2.866072
    31  H   10.098298  10.980669   2.169704   3.447222   3.951103
    32  N    7.503249   9.276729   2.359369   1.389078   2.501419
    33  C    8.782616  10.572059   2.447080   2.216292   3.579452
    34  H    9.292461  11.234577   3.508139   3.252696   4.557416
    35  C    3.579446   1.296119  11.224337  10.108323   8.782458
    36  H    4.557419   2.099003  11.697822  10.662196   9.292278
    37  S    9.891098  11.411362   1.753187   2.592612   3.957051
    38  S    3.957055   2.602674  12.346955  11.131728   9.891020
                   26         27         28         29         30
    26  C    0.000000
    27  H    1.086509   0.000000
    28  C    1.400672   2.153250   0.000000
    29  H    2.147642   2.459586   1.085454   0.000000
    30  C    2.438565   3.412872   1.393730   2.147258   0.000000
    31  H    3.424148   4.308929   2.163609   2.488478   1.085039
    32  N    3.733706   4.639160   4.177512   5.262815   3.670181
    33  C    4.616703   5.621556   4.715661   5.765354   3.840461
    34  H    5.667986   6.648795   5.799268   6.846346   4.890672
    35  C    8.785927   7.905625  10.055519  10.220863  11.222952
    36  H    9.140719   8.189430  10.338840  10.392548  11.573988
    37  S    4.510875   5.596423   4.077914   4.980179   2.843375
    38  S   10.084878   9.291226  11.413501  11.681159  12.496633
                   31         32         33         34         35
    31  H    0.000000
    32  N    4.529060   0.000000
    33  C    4.450017   1.296131   0.000000
    34  H    5.425992   2.098993   1.083937   0.000000
    35  C   12.193208  10.572051  11.867555  12.523468   0.000000
    36  H   12.498302  11.234535  12.523425  13.235724   1.083937
    37  S    3.087467   2.602676   1.753177   2.480904  12.700771
    38  S   13.508941  11.411458  12.700891  13.244051   1.753199
                   36         37         38
    36  H    0.000000
    37  S   13.243881   0.000000
    38  S    2.480911  13.708781   0.000000
 Stoichiometry    C20H10N4O2S2
 Framework group  C1[X(C20H10N4O2S2)]
 Deg. of freedom   108
 Full point group                 C1      NOp   1
 Largest Abelian subgroup         C1      NOp   1
 Largest concise Abelian subgroup C1      NOp   1
                         Standard orientation:                         
 ---------------------------------------------------------------------
 Center     Atomic      Atomic             Coordinates (Angstroms)
 Number     Number       Type             X           Y           Z
 ---------------------------------------------------------------------
      1          7           0        1.572765    1.426726   -0.001906
      2          6           0        0.211593    1.804241   -0.001192
      3          6           0        1.755117    0.052883   -0.000321
      4          6           0        0.488714   -0.522314    0.000772
      5          6           0       -0.488722    0.522477    0.000232
      6          6           0       -1.755111   -0.052757    0.000943
      7          6           0       -0.211569   -1.804074    0.001828
      8          7           0       -1.572740   -1.426607    0.002300
      9          8           0       -0.175609    2.971661   -0.001766
     10          8           0        0.175696   -2.971475    0.002143
     11          1           0       -2.347880   -2.082217    0.002113
     12          1           0        2.347903    2.082335   -0.001993
     13          6           0       -4.277618   -0.194505    0.000093
     14          6           0       -5.527972    0.469176   -0.000138
     15          6           0       -5.627823    1.863325    0.000649
     16          1           0       -6.592673    2.359683    0.000503
     17          6           0       -4.441965    2.595602    0.001644
     18          1           0       -4.483519    3.680262    0.002213
     19          6           0       -3.191362    1.964819    0.001829
     20          1           0       -2.288886    2.569830    0.002298
     21          6           0       -3.073330    0.563705    0.001203
     22          7           0       -4.360514   -1.581101   -0.000676
     23          6           0        5.527924   -0.469288   -0.000221
     24          6           0        4.277637    0.194489   -0.000285
     25          6           0        3.073298   -0.563648   -0.000861
     26          6           0        3.191228   -1.964767   -0.000979
     27          1           0        2.288687   -2.569682   -0.000863
     28          6           0        4.441781   -2.595638   -0.000967
     29          1           0        4.483246   -3.680300   -0.001192
     30          6           0        5.627687   -1.863443   -0.000550
     31          1           0        6.592505   -2.359865   -0.000501
     32          7           0        4.360625    1.581086   -0.000021
     33          6           0        5.594847    1.976877    0.000406
     34          1           0        5.888541    3.020267    0.000705
     35          6           0       -5.594690   -1.976998   -0.001558
     36          1           0       -5.888330   -3.020403   -0.002274
     37         16           0        6.816542    0.719463    0.000410
     38         16           0       -6.816492   -0.719657   -0.001478
 ---------------------------------------------------------------------
 Rotational constants (GHZ):      0.4806486      0.0673565      0.0590776
 Standard basis: 6-31+G(d,p) (6D, 7F)
 There are   590 symmetry adapted basis functions of A   symmetry.
 Integral buffers will be    131072 words long.
 Raffenetti 2 integral format.
 Two-electron integral symmetry is turned on.
   590 basis functions,  1014 primitive gaussians,   590 cartesian basis functions
   103 alpha electrons      103 beta electrons
       nuclear repulsion energy      2609.1967930501 Hartrees.
 NAtoms=   38 NActive=   38 NUniq=   38 SFac= 7.50D-01 NAtFMM=   80 NAOKFM=F Big=F
 One-electron integrals computed using PRISM.
 NBasis=   590 RedAO= T  NBF=   590
 NBsUse=   580 1.00D-06 NBFU=   580
 Harris functional with IExCor=  402 diagonalized for initial guess.
 ExpMin= 4.05D-02 ExpMax= 2.19D+04 ExpMxC= 3.30D+03 IAcc=2 IRadAn=         0 AccDes= 0.00D+00
 HarFok:  IExCor=  402 AccDes= 0.00D+00 IRadAn=         0 IDoV= 1
 ScaDFX=  1.000000  1.000000  1.000000  1.000000
 FoFCou: FMM=F IPFlag=           0 FMFlag=      100000 FMFlg1=           0
         NFxFlg=           0 DoJE=T BraDBF=F KetDBF=T FulRan=T
         Omega=  0.000000  0.000000  1.000000  0.000000  0.000000 ICntrl=     500 IOpCl=  0
         NMat0=    1 NMatS0=    1 NMatT0=    0 NMatD0=    1 NMtDS0=    0 NMtDT0=    0
         I1Cent=           4 NGrid=           0.
 Petite list used in FoFCou.
 Initial guess orbital symmetries:
       Occupied  (A) (A) (A) (A) (A) (A) (A) (A) (A) (A) (A) (A)
                 (A) (A) (A) (A) (A) (A) (A) (A) (A) (A) (A) (A)
                 (A) (A) (A) (A) (A) (A) (A) (A) (A) (A) (A) (A)
                 (A) (A) (A) (A) (A) (A) (A) (A) (A) (A) (A) (A)
                 (A) (A) (A) (A) (A) (A) (A) (A) (A) (A) (A) (A)
                 (A) (A) (A) (A) (A) (A) (A) (A) (A) (A) (A) (A)
                 (A) (A) (A) (A) (A) (A) (A) (A) (A) (A) (A) (A)
                 (A) (A) (A) (A) (A) (A) (A) (A) (A) (A) (A) (A)
                 (A) (A) (A) (A) (A) (A) (A)
       Virtual   (A) (A) (A) (A) (A) (A) (A) (A) (A) (A) (A) (A)
                 (A) (A) (A) (A) (A) (A) (A) (A) (A) (A) (A) (A)
                 (A) (A) (A) (A) (A) (A) (A) (A) (A) (A) (A) (A)
                 (A) (A) (A) (A) (A) (A) (A) (A) (A) (A) (A) (A)
                 (A) (A) (A) (A) (A) (A) (A) (A) (A) (A) (A) (A)
                 (A) (A) (A) (A) (A) (A) (A) (A) (A) (A) (A) (A)
                 (A) (A) (A) (A) (A) (A) (A) (A) (A) (A) (A) (A)
                 (A) (A) (A) (A) (A) (A) (A) (A) (A) (A) (A) (A)
                 (A) (A) (A) (A) (A) (A) (A) (A) (A) (A) (A) (A)
                 (A) (A) (A) (A) (A) (A) (A) (A) (A) (A) (A) (A)
                 (A) (A) (A) (A) (A) (A) (A) (A) (A) (A) (A) (A)
                 (A) (A) (A) (A) (A) (A) (A) (A) (A) (A) (A) (A)
                 (A) (A) (A) (A) (A) (A) (A) (A) (A) (A) (A) (A)
                 (A) (A) (A) (A) (A) (A) (A) (A) (A) (A) (A) (A)
                 (A) (A) (A) (A) (A) (A) (A) (A) (A) (A) (A) (A)
                 (A) (A) (A) (A) (A) (A) (A) (A) (A) (A) (A) (A)
                 (A) (A) (A) (A) (A) (A) (A) (A) (A) (A) (A) (A)
                 (A) (A) (A) (A) (A) (A) (A) (A) (A) (A) (A) (A)
                 (A) (A) (A) (A) (A) (A) (A) (A) (A) (A) (A) (A)
                 (A) (A) (A) (A) (A) (A) (A) (A) (A) (A) (A) (A)
                 (A) (A) (A) (A) (A) (A) (A) (A) (A) (A) (A) (A)
                 (A) (A) (A) (A) (A) (A) (A) (A) (A) (A) (A) (A)
                 (A) (A) (A) (A) (A) (A) (A) (A) (A) (A) (A) (A)
                 (A) (A) (A) (A) (A) (A) (A) (A) (A) (A) (A) (A)
                 (A) (A) (A) (A) (A) (A) (A) (A) (A) (A) (A) (A)
                 (A) (A) (A) (A) (A) (A) (A) (A) (A) (A) (A) (A)
                 (A) (A) (A) (A) (A) (A) (A) (A) (A) (A) (A) (A)
                 (A) (A) (A) (A) (A) (A) (A) (A) (A) (A) (A) (A)
                 (A) (A) (A) (A) (A) (A) (A) (A) (A) (A) (A) (A)
                 (A) (A) (A) (A) (A) (A) (A) (A) (A) (A) (A) (A)
                 (A) (A) (A) (A) (A) (A) (A) (A) (A) (A) (A) (A)
                 (A) (A) (A) (A) (A) (A) (A) (A) (A) (A) (A) (A)
                 (A) (A) (A) (A) (A) (A) (A) (A) (A) (A) (A) (A)
                 (A) (A) (A) (A) (A) (A) (A) (A) (A) (A) (A) (A)
                 (A) (A) (A) (A) (A) (A) (A) (A) (A) (A) (A) (A)
                 (A) (A) (A) (A) (A) (A) (A) (A) (A) (A) (A) (A)
                 (A) (A) (A) (A) (A) (A) (A) (A) (A) (A) (A) (A)
                 (A) (A) (A) (A) (A) (A) (A) (A) (A) (A) (A) (A)
                 (A) (A) (A) (A) (A) (A) (A) (A) (A) (A) (A) (A)
                 (A) (A) (A) (A) (A) (A) (A) (A) (A)
 The electronic state of the initial guess is 1-A.
 Requested convergence on RMS density matrix=1.00D-08 within 128 cycles.
 Requested convergence on MAX density matrix=1.00D-06.
 Requested convergence on             energy=1.00D-06.
 No special actions if energy rises.
 EnCoef did     1 forward-backward iterations
 SCF Done:  E(RB3LYP) =  -1934.09132701     A.U. after   17 cycles
             Convg  =    0.7604D-08             -V/T =  2.0069

 **********************************************************************

            Population analysis using the SCF density.

 **********************************************************************

 Orbital symmetries:
       Occupied  (A) (A) (A) (A) (A) (A) (A) (A) (A) (A) (A) (A)
                 (A) (A) (A) (A) (A) (A) (A) (A) (A) (A) (A) (A)
                 (A) (A) (A) (A) (A) (A) (A) (A) (A) (A) (A) (A)
                 (A) (A) (A) (A) (A) (A) (A) (A) (A) (A) (A) (A)
                 (A) (A) (A) (A) (A) (A) (A) (A) (A) (A) (A) (A)
                 (A) (A) (A) (A) (A) (A) (A) (A) (A) (A) (A) (A)
                 (A) (A) (A) (A) (A) (A) (A) (A) (A) (A) (A) (A)
                 (A) (A) (A) (A) (A) (A) (A) (A) (A) (A) (A) (A)
                 (A) (A) (A) (A) (A) (A) (A)
       Virtual   (A) (A) (A) (A) (A) (A) (A) (A) (A) (A) (A) (A)
                 (A) (A) (A) (A) (A) (A) (A) (A) (A) (A) (A) (A)
                 (A) (A) (A) (A) (A) (A) (A) (A) (A) (A) (A) (A)
                 (A) (A) (A) (A) (A) (A) (A) (A) (A) (A) (A) (A)
                 (A) (A) (A) (A) (A) (A) (A) (A) (A) (A) (A) (A)
                 (A) (A) (A) (A) (A) (A) (A) (A) (A) (A) (A) (A)
                 (A) (A) (A) (A) (A) (A) (A) (A) (A) (A) (A) (A)
                 (A) (A) (A) (A) (A) (A) (A) (A) (A) (A) (A) (A)
                 (A) (A) (A) (A) (A) (A) (A) (A) (A) (A) (A) (A)
                 (A) (A) (A) (A) (A) (A) (A) (A) (A) (A) (A) (A)
                 (A) (A) (A) (A) (A) (A) (A) (A) (A) (A) (A) (A)
                 (A) (A) (A) (A) (A) (A) (A) (A) (A) (A) (A) (A)
                 (A) (A) (A) (A) (A) (A) (A) (A) (A) (A) (A) (A)
                 (A) (A) (A) (A) (A) (A) (A) (A) (A) (A) (A) (A)
                 (A) (A) (A) (A) (A) (A) (A) (A) (A) (A) (A) (A)
                 (A) (A) (A) (A) (A) (A) (A) (A) (A) (A) (A) (A)
                 (A) (A) (A) (A) (A) (A) (A) (A) (A) (A) (A) (A)
                 (A) (A) (A) (A) (A) (A) (A) (A) (A) (A) (A) (A)
                 (A) (A) (A) (A) (A) (A) (A) (A) (A) (A) (A) (A)
                 (A) (A) (A) (A) (A) (A) (A) (A) (A) (A) (A) (A)
                 (A) (A) (A) (A) (A) (A) (A) (A) (A) (A) (A) (A)
                 (A) (A) (A) (A) (A) (A) (A) (A) (A) (A) (A) (A)
                 (A) (A) (A) (A) (A) (A) (A) (A) (A) (A) (A) (A)
                 (A) (A) (A) (A) (A) (A) (A) (A) (A) (A) (A) (A)
                 (A) (A) (A) (A) (A) (A) (A) (A) (A) (A) (A) (A)
                 (A) (A) (A) (A) (A) (A) (A) (A) (A) (A) (A) (A)
                 (A) (A) (A) (A) (A) (A) (A) (A) (A) (A) (A) (A)
                 (A) (A) (A) (A) (A) (A) (A) (A) (A) (A) (A) (A)
                 (A) (A) (A) (A) (A) (A) (A) (A) (A) (A) (A) (A)
                 (A) (A) (A) (A) (A) (A) (A) (A) (A) (A) (A) (A)
                 (A) (A) (A) (A) (A) (A) (A) (A) (A) (A) (A) (A)
                 (A) (A) (A) (A) (A) (A) (A) (A) (A) (A) (A) (A)
                 (A) (A) (A) (A) (A) (A) (A) (A) (A) (A) (A) (A)
                 (A) (A) (A) (A) (A) (A) (A) (A) (A) (A) (A) (A)
                 (A) (A) (A) (A) (A) (A) (A) (A) (A) (A) (A) (A)
                 (A) (A) (A) (A) (A) (A) (A) (A) (A) (A) (A) (A)
                 (A) (A) (A) (A) (A) (A) (A) (A) (A) (A) (A) (A)
                 (A) (A) (A) (A) (A) (A) (A) (A) (A) (A) (A) (A)
                 (A) (A) (A) (A) (A) (A) (A) (A) (A) (A) (A) (A)
                 (A) (A) (A) (A) (A) (A) (A) (A) (A)
 The electronic state is 1-A.
 Alpha  occ. eigenvalues --  -88.94231 -88.94231 -19.13313 -19.13313 -14.37850
 Alpha  occ. eigenvalues --  -14.37850 -14.37324 -14.37324 -10.30079 -10.30078
 Alpha  occ. eigenvalues --  -10.28415 -10.28415 -10.26822 -10.26822 -10.25538
 Alpha  occ. eigenvalues --  -10.25538 -10.25287 -10.25287 -10.23421 -10.23420
 Alpha  occ. eigenvalues --  -10.22723 -10.22723 -10.21586 -10.21586 -10.21028
 Alpha  occ. eigenvalues --  -10.21027 -10.19589 -10.19545  -8.00205  -8.00205
 Alpha  occ. eigenvalues --   -5.96617  -5.96617  -5.96274  -5.96274  -5.95893
 Alpha  occ. eigenvalues --   -5.95893  -1.04724  -1.04213  -0.99659  -0.99644
 Alpha  occ. eigenvalues --   -0.97480  -0.96102  -0.87695  -0.87690  -0.83281
 Alpha  occ. eigenvalues --   -0.83257  -0.80792  -0.78526  -0.77994  -0.76334
 Alpha  occ. eigenvalues --   -0.75945  -0.72373  -0.69639  -0.67423  -0.65142
 Alpha  occ. eigenvalues --   -0.64602  -0.63095  -0.61712  -0.60610  -0.60281
 Alpha  occ. eigenvalues --   -0.57145  -0.54481  -0.53139  -0.52454  -0.51179
 Alpha  occ. eigenvalues --   -0.51060  -0.50916  -0.50146  -0.48790  -0.48217
 Alpha  occ. eigenvalues --   -0.47907  -0.46763  -0.45719  -0.45162  -0.44503
 Alpha  occ. eigenvalues --   -0.43925  -0.43896  -0.43614  -0.42664  -0.42189
 Alpha  occ. eigenvalues --   -0.41842  -0.41543  -0.39504  -0.38831  -0.38462
 Alpha  occ. eigenvalues --   -0.37965  -0.37126  -0.37074  -0.36627  -0.35446
 Alpha  occ. eigenvalues --   -0.34782  -0.32032  -0.31698  -0.31174  -0.31041
 Alpha  occ. eigenvalues --   -0.27634  -0.26896  -0.26677  -0.26544  -0.26479
 Alpha  occ. eigenvalues --   -0.26028  -0.25966  -0.19810
 Alpha virt. eigenvalues --   -0.10845  -0.06822  -0.05457  -0.04097  -0.02403
 Alpha virt. eigenvalues --   -0.02378  -0.01741  -0.00254  -0.00111  -0.00083
 Alpha virt. eigenvalues --    0.00324   0.01639   0.01768   0.01771   0.02050
 Alpha virt. eigenvalues --    0.02252   0.02664   0.03175   0.03705   0.03941
 Alpha virt. eigenvalues --    0.04349   0.04428   0.05542   0.05677   0.05739
 Alpha virt. eigenvalues --    0.05961   0.06877   0.07388   0.07440   0.07766
 Alpha virt. eigenvalues --    0.07893   0.08240   0.09059   0.09232   0.09241
 Alpha virt. eigenvalues --    0.09414   0.09478   0.10276   0.10342   0.10565
 Alpha virt. eigenvalues --    0.10860   0.11494   0.11779   0.11786   0.11951
 Alpha virt. eigenvalues --    0.11964   0.12737   0.12958   0.13482   0.13817
 Alpha virt. eigenvalues --    0.14109   0.14367   0.14657   0.14686   0.15404
 Alpha virt. eigenvalues --    0.15538   0.15811   0.16030   0.16428   0.16665
 Alpha virt. eigenvalues --    0.17015   0.17071   0.17356   0.17475   0.17592
 Alpha virt. eigenvalues --    0.17738   0.18183   0.18263   0.18725   0.18805
 Alpha virt. eigenvalues --    0.19591   0.19617   0.19752   0.20150   0.20171
 Alpha virt. eigenvalues --    0.20706   0.20963   0.21335   0.21674   0.22164
 Alpha virt. eigenvalues --    0.22350   0.22384   0.22416   0.22473   0.22592
 Alpha virt. eigenvalues --    0.22685   0.23068   0.23717   0.23876   0.24048
 Alpha virt. eigenvalues --    0.25102   0.25237   0.25495   0.25878   0.26006
 Alpha virt. eigenvalues --    0.26338   0.26454   0.26655   0.26927   0.27294
 Alpha virt. eigenvalues --    0.27938   0.28009   0.28201   0.28217   0.28689
 Alpha virt. eigenvalues --    0.28705   0.28914   0.29304   0.29651   0.30149
 Alpha virt. eigenvalues --    0.30734   0.30759   0.30913   0.31327   0.31609
 Alpha virt. eigenvalues --    0.31929   0.31992   0.32909   0.32970   0.33418
 Alpha virt. eigenvalues --    0.33439   0.33913   0.33974   0.34463   0.34980
 Alpha virt. eigenvalues --    0.35169   0.35602   0.35712   0.37244   0.37975
 Alpha virt. eigenvalues --    0.38382   0.38490   0.39601   0.41084   0.41428
 Alpha virt. eigenvalues --    0.41756   0.42032   0.43142   0.43995   0.44280
 Alpha virt. eigenvalues --    0.45696   0.46062   0.46554   0.48203   0.49033
 Alpha virt. eigenvalues --    0.49673   0.49730   0.49928   0.50457   0.50867
 Alpha virt. eigenvalues --    0.51905   0.52181   0.52917   0.53299   0.56152
 Alpha virt. eigenvalues --    0.57208   0.58124   0.58539   0.59294   0.60046
 Alpha virt. eigenvalues --    0.60751   0.60893   0.62161   0.63717   0.64823
 Alpha virt. eigenvalues --    0.64830   0.65484   0.66780   0.67065   0.67127
 Alpha virt. eigenvalues --    0.67335   0.67377   0.67831   0.69152   0.69757
 Alpha virt. eigenvalues --    0.70102   0.70827   0.72077   0.72182   0.72197
 Alpha virt. eigenvalues --    0.72999   0.73223   0.74027   0.74107   0.74117
 Alpha virt. eigenvalues --    0.75832   0.76525   0.78212   0.78318   0.78584
 Alpha virt. eigenvalues --    0.78755   0.79867   0.79896   0.80502   0.80551
 Alpha virt. eigenvalues --    0.80588   0.81739   0.81874   0.82907   0.83558
 Alpha virt. eigenvalues --    0.84176   0.86843   0.87674   0.87797   0.88342
 Alpha virt. eigenvalues --    0.88563   0.88713   0.89238   0.89389   0.90421
 Alpha virt. eigenvalues --    0.90570   0.93189   0.93969   0.95705   0.95878
 Alpha virt. eigenvalues --    0.96689   0.97676   0.97751   0.98319   0.98645
 Alpha virt. eigenvalues --    0.98956   1.00018   1.01006   1.01347   1.01429
 Alpha virt. eigenvalues --    1.02970   1.03204   1.03993   1.04143   1.05198
 Alpha virt. eigenvalues --    1.06035   1.07225   1.08727   1.09577   1.12260
 Alpha virt. eigenvalues --    1.12578   1.13115   1.13865   1.13995   1.16019
 Alpha virt. eigenvalues --    1.16101   1.17408   1.18199   1.20019   1.20556
 Alpha virt. eigenvalues --    1.20904   1.21036   1.22053   1.22162   1.23015
 Alpha virt. eigenvalues --    1.24415   1.24764   1.25819   1.27055   1.27208
 Alpha virt. eigenvalues --    1.27744   1.28253   1.29245   1.29273   1.29638
 Alpha virt. eigenvalues --    1.30156   1.30406   1.31320   1.31371   1.32678
 Alpha virt. eigenvalues --    1.33182   1.33312   1.33416   1.34090   1.34831
 Alpha virt. eigenvalues --    1.35256   1.35735   1.36965   1.37174   1.38276
 Alpha virt. eigenvalues --    1.38323   1.38559   1.38976   1.39805   1.39920
 Alpha virt. eigenvalues --    1.40393   1.41177   1.41762   1.42449   1.42627
 Alpha virt. eigenvalues --    1.43278   1.46189   1.46590   1.47950   1.51684
 Alpha virt. eigenvalues --    1.52251   1.52299   1.53505   1.54933   1.56290
 Alpha virt. eigenvalues --    1.58817   1.59369   1.62596   1.64893   1.65306
 Alpha virt. eigenvalues --    1.65538   1.66132   1.66175   1.69865   1.70460
 Alpha virt. eigenvalues --    1.72005   1.74296   1.74372   1.76038   1.76430
 Alpha virt. eigenvalues --    1.77088   1.78361   1.80221   1.82745   1.82747
 Alpha virt. eigenvalues --    1.83530   1.84789   1.87351   1.87453   1.87699
 Alpha virt. eigenvalues --    1.88739   1.90028   1.91098   1.91378   1.92272
 Alpha virt. eigenvalues --    1.92741   1.92860   1.93126   1.93972   1.94468
 Alpha virt. eigenvalues --    1.94478   1.96553   1.98654   1.98733   2.01322
 Alpha virt. eigenvalues --    2.01425   2.01971   2.02100   2.02258   2.03301
 Alpha virt. eigenvalues --    2.05072   2.05463   2.05510   2.06433   2.08068
 Alpha virt. eigenvalues --    2.09285   2.09994   2.11250   2.11492   2.13669
 Alpha virt. eigenvalues --    2.15308   2.17193   2.17493   2.19327   2.19369
 Alpha virt. eigenvalues --    2.20560   2.22019   2.23278   2.23901   2.25606
 Alpha virt. eigenvalues --    2.26758   2.29067   2.30221   2.30447   2.31287
 Alpha virt. eigenvalues --    2.32556   2.34076   2.34290   2.36458   2.36928
 Alpha virt. eigenvalues --    2.38360   2.38443   2.38772   2.39513   2.40747
 Alpha virt. eigenvalues --    2.42401   2.43512   2.45773   2.46678   2.47253
 Alpha virt. eigenvalues --    2.47351   2.47459   2.49032   2.50483   2.50521
 Alpha virt. eigenvalues --    2.51009   2.52638   2.52970   2.53725   2.54494
 Alpha virt. eigenvalues --    2.55491   2.56833   2.56881   2.59156   2.59592
 Alpha virt. eigenvalues --    2.59805   2.62355   2.63337   2.63878   2.64277
 Alpha virt. eigenvalues --    2.64417   2.64747   2.64750   2.66711   2.68024
 Alpha virt. eigenvalues --    2.71448   2.71989   2.73032   2.74677   2.75838
 Alpha virt. eigenvalues --    2.77269   2.78433   2.80530   2.81130   2.83931
 Alpha virt. eigenvalues --    2.84322   2.84715   2.88065   2.92166   2.93758
 Alpha virt. eigenvalues --    2.95276   2.97316   3.01251   3.01550   3.03552
 Alpha virt. eigenvalues --    3.05195   3.06342   3.10819   3.11698   3.13035
 Alpha virt. eigenvalues --    3.15755   3.22520   3.22701   3.24314   3.28125
 Alpha virt. eigenvalues --    3.29548   3.29580   3.30675   3.31179   3.37866
 Alpha virt. eigenvalues --    3.39946   3.42184   3.43941   3.46205   3.50907
 Alpha virt. eigenvalues --    3.61123   3.62478   3.77660   3.77894   3.97064
 Alpha virt. eigenvalues --    3.97481   4.22042   4.23741   4.26592   4.28829
 Alpha virt. eigenvalues --    4.29465   4.32918   4.33122   4.33830   4.36294
 Alpha virt. eigenvalues --    4.37103   4.42774   4.43674   4.44657   4.46046
 Alpha virt. eigenvalues --    4.47996   4.52896   4.55067   4.58475   4.59598
 Alpha virt. eigenvalues --    4.61912   4.68121   4.77050   4.84912   4.86871
 Alpha virt. eigenvalues --    5.05889   5.14774
          Condensed to atoms (all electrons):
              1          2          3          4          5          6
     1  N    7.449010   0.191368   0.094330  -0.184724  -0.234750   0.049430
     2  C    0.191368   7.253582  -0.418531  -0.478263  -1.228447   0.093226
     3  C    0.094330  -0.418531   8.514472   0.206300  -0.534804   0.526266
     4  C   -0.184724  -0.478263   0.206300   9.726663   0.351057  -0.535072
     5  C   -0.234750  -1.228447  -0.534804   0.351057   9.726442   0.206543
     6  C    0.049430   0.093226   0.526266  -0.535072   0.206543   8.514513
     7  C   -0.046021   0.010186   0.093370  -1.228380  -0.478396  -0.418585
     8  N    0.005055  -0.046030   0.049449  -0.234722  -0.184738   0.094400
     9  O   -0.072567   0.350447  -0.049487  -0.016523  -0.048137   0.036251
    10  O   -0.004912   0.008515   0.036246  -0.048086  -0.016505  -0.049499
    11  H    0.000049   0.002171  -0.004475  -0.027910   0.040150  -0.007395
    12  H    0.277586  -0.012689  -0.007399   0.040157  -0.027901  -0.004482
    13  C    0.013739  -0.111429  -0.177827  -0.429101   0.385748  -0.356019
    14  C   -0.001897  -0.115628  -0.175696  -0.145688  -0.378805  -0.725504
    15  C    0.001237   0.017055  -0.000656  -0.171103   0.062213  -0.437737
    16  H    0.000000  -0.000157  -0.000004   0.000019   0.000298   0.001668
    17  C    0.022775   0.030539   0.158764   0.207479   0.017326  -0.231660
    18  H    0.000000  -0.001008  -0.000010  -0.000279   0.000004  -0.002573
    19  C    0.040974   0.008296  -0.151193  -0.581172  -1.366545  -1.465909
    20  H    0.003366   0.020258   0.015927  -0.003667   0.047011  -0.048071
    21  C   -0.070512  -0.121177  -0.281112   0.277232   0.801338   0.794527
    22  N   -0.001073  -0.008866   0.009487  -0.036863   0.010597  -0.030996
    23  C   -0.079441  -0.003448  -0.725509  -0.378828  -0.145709  -0.175740
    24  C    0.051072   0.106995  -0.356233   0.385857  -0.429103  -0.177896
    25  C   -0.013754   0.021000   0.794557   0.801227   0.277137  -0.281101
    26  C   -0.073622  -0.045509  -1.465366  -1.366341  -0.580885  -0.151055
    27  H    0.000511  -0.001210  -0.048083   0.047010  -0.003676   0.015932
    28  C    0.024153  -0.066412  -0.232160   0.017163   0.207312   0.158772
    29  H    0.000055  -0.000051  -0.002573   0.000004  -0.000280  -0.000010
    30  C    0.025936   0.030492  -0.437696   0.062238  -0.171076  -0.000653
    31  H    0.000037   0.000045   0.001669   0.000299   0.000019  -0.000004
    32  N    0.017540   0.016234  -0.030960   0.010600  -0.036845   0.009485
    33  C   -0.041515  -0.039431  -0.107364  -0.033861  -0.027931  -0.012337
    34  H   -0.002176  -0.000477   0.018222   0.002146  -0.000616   0.000123
    35  C    0.000029  -0.009138  -0.012337  -0.027943  -0.033858  -0.107397
    36  H    0.000000   0.000080   0.000123  -0.000615   0.002146   0.018225
    37  S    0.002772   0.002397  -0.023499  -0.017919   0.016549   0.003569
    38  S    0.000027   0.003165   0.003569   0.016555  -0.017923  -0.023475
              7          8          9         10         11         12
     1  N   -0.046021   0.005055  -0.072567  -0.004912   0.000049   0.277586
     2  C    0.010186  -0.046030   0.350447   0.008515   0.002171  -0.012689
     3  C    0.093370   0.049449  -0.049487   0.036246  -0.004475  -0.007399
     4  C   -1.228380  -0.234722  -0.016523  -0.048086  -0.027910   0.040157
     5  C   -0.478396  -0.184738  -0.048137  -0.016505   0.040150  -0.027901
     6  C   -0.418585   0.094400   0.036251  -0.049499  -0.007395  -0.004482
     7  C    7.253602   0.191358   0.008510   0.350431  -0.012678   0.002172
     8  N    0.191358   7.449003  -0.004912  -0.072583   0.277573   0.000049
     9  O    0.008510  -0.004912   8.434713   0.000012   0.000022  -0.001799
    10  O    0.350431  -0.072583   0.000012   8.434772  -0.001798   0.000022
    11  H   -0.012678   0.277573   0.000022  -0.001798   0.355769   0.000000
    12  H    0.002172   0.000049  -0.001799   0.000022   0.000000   0.355769
    13  C    0.106966   0.051061   0.014033  -0.010189   0.024287  -0.000031
    14  C   -0.003495  -0.079459   0.006987  -0.001687   0.030362  -0.000045
    15  C    0.030496   0.025916  -0.009594  -0.000333   0.008292   0.000003
    16  H    0.000045   0.000037   0.000008   0.000000   0.000000   0.000000
    17  C   -0.066426   0.024161  -0.110298   0.000346  -0.006330   0.000496
    18  H   -0.000051   0.000055   0.000265   0.000000   0.000000   0.000000
    19  C   -0.045514  -0.073683  -0.082727  -0.003824  -0.013956   0.002224
    20  H   -0.001209   0.000511  -0.001993   0.000006   0.000002  -0.000004
    21  C    0.020958  -0.013731   0.089527   0.012443  -0.048810  -0.003381
    22  N    0.016241   0.017542   0.000265  -0.003514   0.046821  -0.000001
    23  C   -0.115617  -0.001899  -0.001688   0.006993  -0.000045   0.030371
    24  C   -0.111447   0.013742  -0.010193   0.014035  -0.000031   0.024295
    25  C   -0.121083  -0.070525   0.012443   0.089590  -0.003382  -0.048817
    26  C    0.008312   0.040989  -0.003822  -0.082802   0.002226  -0.013961
    27  H    0.020260   0.003367   0.000006  -0.001997  -0.000004   0.000002
    28  C    0.030479   0.022786   0.000346  -0.110360   0.000496  -0.006331
    29  H   -0.001008   0.000000   0.000000   0.000266   0.000000   0.000000
    30  C    0.017054   0.001237  -0.000332  -0.009603   0.000003   0.008291
    31  H   -0.000157   0.000000   0.000000   0.000008   0.000000   0.000000
    32  N   -0.008863  -0.001073  -0.003512   0.000265  -0.000001   0.046812
    33  C   -0.009139   0.000029  -0.000350   0.000072   0.000000  -0.003785
    34  H    0.000080   0.000000   0.000003   0.000000   0.000000  -0.000115
    35  C   -0.039439  -0.041519   0.000072  -0.000350  -0.003787   0.000000
    36  H   -0.000478  -0.002176   0.000000   0.000003  -0.000115   0.000000
    37  S    0.003165   0.000027   0.000370  -0.000066   0.000000  -0.003827
    38  S    0.002397   0.002773  -0.000066   0.000370  -0.003828   0.000000
             13         14         15         16         17         18
     1  N    0.013739  -0.001897   0.001237   0.000000   0.022775   0.000000
     2  C   -0.111429  -0.115628   0.017055  -0.000157   0.030539  -0.001008
     3  C   -0.177827  -0.175696  -0.000656  -0.000004   0.158764  -0.000010
     4  C   -0.429101  -0.145688  -0.171103   0.000019   0.207479  -0.000279
     5  C    0.385748  -0.378805   0.062213   0.000298   0.017326   0.000004
     6  C   -0.356019  -0.725504  -0.437737   0.001668  -0.231660  -0.002573
     7  C    0.106966  -0.003495   0.030496   0.000045  -0.066426  -0.000051
     8  N    0.051061  -0.079459   0.025916   0.000037   0.024161   0.000055
     9  O    0.014033   0.006987  -0.009594   0.000008  -0.110298   0.000265
    10  O   -0.010189  -0.001687  -0.000333   0.000000   0.000346   0.000000
    11  H    0.024287   0.030362   0.008292   0.000000  -0.006330   0.000000
    12  H   -0.000031  -0.000045   0.000003   0.000000   0.000496   0.000000
    13  C    9.514973  -1.466374  -2.189191   0.011852   0.467249  -0.000759
    14  C   -1.466374  11.737605  -1.269686   0.056651  -1.443548   0.006155
    15  C   -2.189191  -1.269686  10.418023   0.228447   0.822909  -0.006430
    16  H    0.011852   0.056651   0.228447   0.553669  -0.037641  -0.004609
    17  C    0.467249  -1.443548   0.822909  -0.037641   7.918167   0.347178
    18  H   -0.000759   0.006155  -0.006430  -0.004609   0.347178   0.550718
    19  C   -0.631403   2.814180  -0.941673   0.048394  -1.652994  -0.042466
    20  H    0.032717  -0.036910   0.026879  -0.000160   0.075624  -0.004857
    21  C    1.493688  -2.796583  -0.355424   0.003472  -0.082591   0.019698
    22  N    0.230076  -0.032173  -0.085959  -0.001092  -0.035865   0.000310
    23  C   -0.006945  -0.000638  -0.000201   0.000000   0.001240   0.000000
    24  C   -0.029218  -0.006944  -0.000560   0.000000   0.008219   0.000000
    25  C   -0.066328  -0.011387  -0.007552   0.000000   0.028347  -0.000004
    26  C   -0.043485  -0.007974   0.000152   0.000000   0.009185   0.000001
    27  H    0.000594   0.000048   0.000008   0.000000  -0.000042   0.000000
    28  C    0.008215   0.001239   0.000251   0.000000  -0.000492   0.000000
    29  H    0.000000   0.000000   0.000000   0.000000   0.000000   0.000000
    30  C   -0.000559  -0.000201   0.000012   0.000000   0.000251   0.000000
    31  H    0.000000   0.000000   0.000000   0.000000   0.000000   0.000000
    32  N    0.000188  -0.000033   0.000003   0.000000   0.000457   0.000000
    33  C   -0.000464  -0.000044  -0.000010   0.000000   0.000230   0.000000
    34  H    0.000000   0.000000   0.000000   0.000000   0.000000   0.000000
    35  C   -1.288633   0.709064   0.504915  -0.001466  -0.045564   0.000203
    36  H    0.076573  -0.055333  -0.005583  -0.000001   0.001325   0.000000
    37  S    0.000058   0.000010   0.000002   0.000000  -0.000021   0.000000
    38  S    0.518385  -0.186105  -0.708809  -0.000351   0.112829  -0.002667
             19         20         21         22         23         24
     1  N    0.040974   0.003366  -0.070512  -0.001073  -0.079441   0.051072
     2  C    0.008296   0.020258  -0.121177  -0.008866  -0.003448   0.106995
     3  C   -0.151193   0.015927  -0.281112   0.009487  -0.725509  -0.356233
     4  C   -0.581172  -0.003667   0.277232  -0.036863  -0.378828   0.385857
     5  C   -1.366545   0.047011   0.801338   0.010597  -0.145709  -0.429103
     6  C   -1.465909  -0.048071   0.794527  -0.030996  -0.175740  -0.177896
     7  C   -0.045514  -0.001209   0.020958   0.016241  -0.115617  -0.111447
     8  N   -0.073683   0.000511  -0.013731   0.017542  -0.001899   0.013742
     9  O   -0.082727  -0.001993   0.089527   0.000265  -0.001688  -0.010193
    10  O   -0.003824   0.000006   0.012443  -0.003514   0.006993   0.014035
    11  H   -0.013956   0.000002  -0.048810   0.046821  -0.000045  -0.000031
    12  H    0.002224  -0.000004  -0.003381  -0.000001   0.030371   0.024295
    13  C   -0.631403   0.032717   1.493688   0.230076  -0.006945  -0.029218
    14  C    2.814180  -0.036910  -2.796583  -0.032173  -0.000638  -0.006944
    15  C   -0.941673   0.026879  -0.355424  -0.085959  -0.000201  -0.000560
    16  H    0.048394  -0.000160   0.003472  -0.001092   0.000000   0.000000
    17  C   -1.652994   0.075624  -0.082591  -0.035865   0.001240   0.008219
    18  H   -0.042466  -0.004857   0.019698   0.000310   0.000000   0.000000
    19  C   13.550328   0.260471  -3.498594   0.050971  -0.007975  -0.043503
    20  H    0.260471   0.511925  -0.081100  -0.001002   0.000048   0.000594
    21  C   -3.498594  -0.081100  10.054747  -0.090639  -0.011390  -0.066338
    22  N    0.050971  -0.001002  -0.090639   7.073340  -0.000033   0.000188
    23  C   -0.007975   0.000048  -0.011390  -0.000033  11.738615  -1.466939
    24  C   -0.043503   0.000594  -0.066338   0.000188  -1.466939   9.515737
    25  C   -0.019992  -0.001713   0.039114  -0.002605  -2.797093   1.493881
    26  C    0.007953  -0.000586  -0.019999   0.003049   2.813793  -0.631334
    27  H   -0.000586   0.000000  -0.001714   0.000024  -0.036919   0.032730
    28  C    0.009186  -0.000042   0.028341   0.000457  -1.443393   0.467148
    29  H    0.000001   0.000000  -0.000004   0.000000   0.006149  -0.000760
    30  C    0.000152   0.000008  -0.007552   0.000003  -1.269608  -2.189240
    31  H    0.000000   0.000000   0.000000   0.000000   0.056652   0.011847
    32  N    0.003048   0.000024  -0.002603  -0.000002  -0.032107   0.230020
    33  C   -0.000466   0.000007  -0.001051   0.000002   0.709148  -1.288603
    34  H    0.000005   0.000000   0.000000   0.000000  -0.055351   0.076586
    35  C    0.272553   0.000659  -0.460979   0.014611  -0.000044  -0.000464
    36  H   -0.007351   0.000000   0.006324  -0.081199   0.000000   0.000000
    37  S    0.000163  -0.000002   0.000619   0.000001  -0.186139   0.518323
    38  S   -0.014936  -0.000274   0.098791   0.027880   0.000010   0.000058
             25         26         27         28         29         30
     1  N   -0.013754  -0.073622   0.000511   0.024153   0.000055   0.025936
     2  C    0.021000  -0.045509  -0.001210  -0.066412  -0.000051   0.030492
     3  C    0.794557  -1.465366  -0.048083  -0.232160  -0.002573  -0.437696
     4  C    0.801227  -1.366341   0.047010   0.017163   0.000004   0.062238
     5  C    0.277137  -0.580885  -0.003676   0.207312  -0.000280  -0.171076
     6  C   -0.281101  -0.151055   0.015932   0.158772  -0.000010  -0.000653
     7  C   -0.121083   0.008312   0.020260   0.030479  -0.001008   0.017054
     8  N   -0.070525   0.040989   0.003367   0.022786   0.000000   0.001237
     9  O    0.012443  -0.003822   0.000006   0.000346   0.000000  -0.000332
    10  O    0.089590  -0.082802  -0.001997  -0.110360   0.000266  -0.009603
    11  H   -0.003382   0.002226  -0.000004   0.000496   0.000000   0.000003
    12  H   -0.048817  -0.013961   0.000002  -0.006331   0.000000   0.008291
    13  C   -0.066328  -0.043485   0.000594   0.008215   0.000000  -0.000559
    14  C   -0.011387  -0.007974   0.000048   0.001239   0.000000  -0.000201
    15  C   -0.007552   0.000152   0.000008   0.000251   0.000000   0.000012
    16  H    0.000000   0.000000   0.000000   0.000000   0.000000   0.000000
    17  C    0.028347   0.009185  -0.000042  -0.000492   0.000000   0.000251
    18  H   -0.000004   0.000001   0.000000   0.000000   0.000000   0.000000
    19  C   -0.019992   0.007953  -0.000586   0.009186   0.000001   0.000152
    20  H   -0.001713  -0.000586   0.000000  -0.000042   0.000000   0.000008
    21  C    0.039114  -0.019999  -0.001714   0.028341  -0.000004  -0.007552
    22  N   -0.002605   0.003049   0.000024   0.000457   0.000000   0.000003
    23  C   -2.797093   2.813793  -0.036919  -1.443393   0.006149  -1.269608
    24  C    1.493881  -0.631334   0.032730   0.467148  -0.000760  -2.189240
    25  C   10.054380  -3.496657  -0.081123  -0.083923   0.019699  -0.355245
    26  C   -3.496657  13.546316   0.260512  -1.650942  -0.042462  -0.942603
    27  H   -0.081123   0.260512   0.511933   0.075607  -0.004857   0.026885
    28  C   -0.083923  -1.650942   0.075607   7.917758   0.347184   0.823479
    29  H    0.019699  -0.042462  -0.004857   0.347184   0.550718  -0.006434
    30  C   -0.355245  -0.942603   0.026885   0.823479  -0.006434  10.418015
    31  H    0.003475   0.048399  -0.000160  -0.037647  -0.004609   0.228451
    32  N   -0.090672   0.050945  -0.001002  -0.035867   0.000310  -0.085937
    33  C   -0.461019   0.272438   0.000659  -0.045488   0.000203   0.504801
    34  H    0.006332  -0.007348   0.000000   0.001324   0.000000  -0.005584
    35  C   -0.001052  -0.000467   0.000007   0.000230   0.000000  -0.000010
    36  H    0.000000   0.000005   0.000000   0.000000   0.000000   0.000000
    37  S    0.098803  -0.014882  -0.000274   0.112794  -0.002667  -0.708687
    38  S    0.000620   0.000163  -0.000002  -0.000021   0.000000   0.000002
             31         32         33         34         35         36
     1  N    0.000037   0.017540  -0.041515  -0.002176   0.000029   0.000000
     2  C    0.000045   0.016234  -0.039431  -0.000477  -0.009138   0.000080
     3  C    0.001669  -0.030960  -0.107364   0.018222  -0.012337   0.000123
     4  C    0.000299   0.010600  -0.033861   0.002146  -0.027943  -0.000615
     5  C    0.000019  -0.036845  -0.027931  -0.000616  -0.033858   0.002146
     6  C   -0.000004   0.009485  -0.012337   0.000123  -0.107397   0.018225
     7  C   -0.000157  -0.008863  -0.009139   0.000080  -0.039439  -0.000478
     8  N    0.000000  -0.001073   0.000029   0.000000  -0.041519  -0.002176
     9  O    0.000000  -0.003512  -0.000350   0.000003   0.000072   0.000000
    10  O    0.000008   0.000265   0.000072   0.000000  -0.000350   0.000003
    11  H    0.000000  -0.000001   0.000000   0.000000  -0.003787  -0.000115
    12  H    0.000000   0.046812  -0.003785  -0.000115   0.000000   0.000000
    13  C    0.000000   0.000188  -0.000464   0.000000  -1.288633   0.076573
    14  C    0.000000  -0.000033  -0.000044   0.000000   0.709064  -0.055333
    15  C    0.000000   0.000003  -0.000010   0.000000   0.504915  -0.005583
    16  H    0.000000   0.000000   0.000000   0.000000  -0.001466  -0.000001
    17  C    0.000000   0.000457   0.000230   0.000000  -0.045564   0.001325
    18  H    0.000000   0.000000   0.000000   0.000000   0.000203   0.000000
    19  C    0.000000   0.003048  -0.000466   0.000005   0.272553  -0.007351
    20  H    0.000000   0.000024   0.000007   0.000000   0.000659   0.000000
    21  C    0.000000  -0.002603  -0.001051   0.000000  -0.460979   0.006324
    22  N    0.000000  -0.000002   0.000002   0.000000   0.014611  -0.081199
    23  C    0.056652  -0.032107   0.709148  -0.055351  -0.000044   0.000000
    24  C    0.011847   0.230020  -1.288603   0.076586  -0.000464   0.000000
    25  C    0.003475  -0.090672  -0.461019   0.006332  -0.001052   0.000000
    26  C    0.048399   0.050945   0.272438  -0.007348  -0.000467   0.000005
    27  H   -0.000160  -0.001002   0.000659   0.000000   0.000007   0.000000
    28  C   -0.037647  -0.035867  -0.045488   0.001324   0.000230   0.000000
    29  H   -0.004609   0.000310   0.000203   0.000000   0.000000   0.000000
    30  C    0.228451  -0.085937   0.504801  -0.005584  -0.000010   0.000000
    31  H    0.553667  -0.001092  -0.001466  -0.000001   0.000000   0.000000
    32  N   -0.001092   7.073376   0.014593  -0.081203   0.000002   0.000000
    33  C   -0.001466   0.014593   6.351453   0.428012  -0.000002   0.000000
    34  H   -0.000001  -0.081203   0.428012   0.527638   0.000000   0.000000
    35  C    0.000000   0.000002  -0.000002   0.000000   6.351468   0.428009
    36  H    0.000000   0.000000   0.000000   0.000000   0.428009   0.527634
    37  S   -0.000353   0.027874  -0.259571  -0.077983   0.000001   0.000000
    38  S    0.000000   0.000001   0.000001   0.000000  -0.259602  -0.077983
             37         38
     1  N    0.002772   0.000027
     2  C    0.002397   0.003165
     3  C   -0.023499   0.003569
     4  C   -0.017919   0.016555
     5  C    0.016549  -0.017923
     6  C    0.003569  -0.023475
     7  C    0.003165   0.002397
     8  N    0.000027   0.002773
     9  O    0.000370  -0.000066
    10  O   -0.000066   0.000370
    11  H    0.000000  -0.003828
    12  H   -0.003827   0.000000
    13  C    0.000058   0.518385
    14  C    0.000010  -0.186105
    15  C    0.000002  -0.708809
    16  H    0.000000  -0.000351
    17  C   -0.000021   0.112829
    18  H    0.000000  -0.002667
    19  C    0.000163  -0.014936
    20  H   -0.000002  -0.000274
    21  C    0.000619   0.098791
    22  N    0.000001   0.027880
    23  C   -0.186139   0.000010
    24  C    0.518323   0.000058
    25  C    0.098803   0.000620
    26  C   -0.014882   0.000163
    27  H   -0.000274  -0.000002
    28  C    0.112794  -0.000021
    29  H   -0.002667   0.000000
    30  C   -0.708687   0.000002
    31  H   -0.000353   0.000000
    32  N    0.027874   0.000001
    33  C   -0.259571   0.000001
    34  H   -0.077983   0.000000
    35  C    0.000001  -0.259602
    36  H    0.000000  -0.077983
    37  S   16.322985   0.000000
    38  S    0.000000  16.323039
 Mulliken atomic charges:
              1
     1  N   -0.444084
     2  C    0.541850
     3  C    0.720223
     4  C   -0.204945
     5  C   -0.204963
     6  C    0.720241
     7  C    0.541905
     8  N   -0.444069
     9  O   -0.536277
    10  O   -0.536285
    11  H    0.346322
    12  H    0.346319
    13  C   -0.142451
    14  C   -0.420462
    15  C    0.043686
[...]
 0003,-0.00000014,-0.00000018,0.,0.00000173,-0.00000146,0.00000021,-0.0
 0000140,0.00000057,0.,-0.00000292,0.00000069,-0.00000015,-0.00000098,-
 0.00000261,0.00000001,-0.00000357,0.00000027,-0.00000014,-0.00000221,-
 0.00000026,0.,-0.00471223,0.00335104,0.00000111,-0.00457197,-0.0012857
 5,0.00000058,0.00104808,-0.00115313,-0.00000035,-0.00038824,-0.0003619
 8,-0.00000011,0.00008227,-0.00015672,0.,-0.00054073,0.00041707,0.00000
 015,0.00014767,0.00006813,0.,0.00200043,0.00052427,0.00000005,0.000013
 93,-0.00018491,-0.00000007,-0.00980298,-0.03308104,-0.00000387,-0.0680
 2206,-0.06754697,-0.00000602,0.07905052,-0.00010478,-0.00002705,0.0000
 0003,0.00003882,0.00001781,0.00000001,0.00007361,0.00000536,0.00000005
 ,-0.00006791,0.00001932,0.00000005,0.00000525,-0.00004152,-0.00000009,
 -0.00001436,-0.00001334,0.00000010,-0.00001495,-0.00000149,0.00000017,
 -0.00000782,-0.00000459,-0.00000015,-0.00001177,-0.00002715,0.00000010
 ,0.00000304,0.00000623,-0.00000007,-0.00000152,-0.00000037,0.00000005,
 0.00008838,0.00000244,-0.00000001,-0.00000266,-0.00000330,-0.00000049,
 0.00000041,-0.00000240,0.00000069,0.00000163,-0.00000013,-0.00000001,0
 .00000021,0.00000011,-0.00000002,-0.00000016,0.00000183,0.00000022,0.0
 0000064,-0.00000031,-0.00000002,0.00000123,0.00000123,-0.00000015,0.00
 000251,0.00000147,0.00000002,0.00000353,-0.00000305,-0.00000015,0.0000
 0243,0.00000185,0.,0.00250691,-0.00002389,0.00000015,-0.00086341,0.002
 36206,-0.00000097,-0.00029981,-0.00037465,-0.00000036,-0.00033251,0.00
 031408,0.00000008,0.00000573,-0.00000168,0.00000005,0.00044708,-0.0000
 6064,0.00000007,-0.00004205,-0.00002375,0.00000004,-0.00065649,-0.0003
 1395,-0.00000029,-0.00002142,0.00008109,-0.00000009,-0.00452396,-0.002
 74701,0.00000058,-0.07540025,-0.33366704,-0.00003361,0.08227521,0.3446
 2752,-0.00000002,-0.00000009,0.00011063,-0.00000003,-0.00000016,0.0000
 1659,0.00000010,-0.00000006,0.00017457,0.00000009,0.00000017,-0.000035
 26,-0.00000002,0.00000007,-0.00000261,-0.00000016,0.00000006,0.0000313
 9,-0.00000005,-0.00000003,-0.00001085,0.,-0.00000002,0.00000192,-0.000
 00002,0.00000010,-0.00002769,0.00000001,-0.00000003,-0.00000999,-0.000
 00006,-0.00000005,0.00000178,0.,0.00000008,-0.00021295,0.00000024,0.00
 000019,-0.00000919,-0.00000017,-0.00000006,0.00000625,0.00000013,-0.00
 000006,-0.00000193,0.00000001,0.,0.00000104,-0.00000030,0.00000002,-0.
 00000157,-0.00000002,0.00000008,0.00000227,0.00000012,-0.00000006,-0.0
 0000421,-0.00000002,-0.00000002,0.00000405,0.00000011,-0.00000016,-0.0
 0000682,-0.00000004,0.00000002,-0.00000321,0.00000062,-0.00000010,0.00
 081204,0.00000094,-0.00000107,0.00890039,0.,-0.00000002,0.00112413,-0.
 00000034,0.00000024,-0.00043577,-0.00000003,-0.00000005,-0.00017691,0.
 00000044,-0.00000014,-0.00008154,-0.00000004,0.00000006,-0.00041389,-0
 .00000020,-0.00000019,0.00212563,0.00000001,-0.00000001,0.00013624,-0.
 00000024,0.00000258,-0.00498703,-0.00000711,-0.00003435,-0.02848932,0.
 00000667,0.00003542,0.02152664,-0.00006344,0.00054255,-0.00000015,0.00
 007886,-0.00332770,-0.00000044,0.00009819,-0.00032129,-0.00000077,0.00
 047147,0.00133626,0.00000004,0.00347400,0.00205416,0.00000077,-0.00419
 849,-0.00282655,-0.00000116,-0.00201962,0.00021734,-0.00000109,0.00144
 402,0.00163195,0.00000121,-0.00102322,0.00208143,-0.00000040,0.0005375
 3,0.00016174,0.00000047,-0.00504269,-0.00095949,-0.00000014,-0.0001678
 6,-0.00008631,0.00000016,-0.03917237,-0.07580479,-0.00000534,0.0052700
 6,0.00831039,-0.00000297,-0.00686205,0.00319441,0.00000079,-0.00030922
 ,0.00145291,0.00000026,-0.00645935,0.00123208,-0.00000100,-0.00070655,
 -0.00041869,0.00000005,0.00219502,-0.00878850,-0.00000028,0.00041540,0
 .00034910,-0.00000012,0.01286072,0.01224919,0.00000233,-0.43763383,-0.
 12075414,0.00000030,-0.00005959,-0.00016137,-0.00000259,0.00000919,-0.
 00019910,0.00000122,-0.00030897,0.00012036,0.00000141,0.00014651,-0.00
 011265,0.00000029,-0.00009007,0.00000904,-0.00000018,-0.00009002,0.000
 12696,-0.00000055,-0.00000235,-0.00002471,-0.00000002,0.00020453,-0.00
 001665,0.00000017,0.00001704,0.00000555,0.00000049,0.00028008,0.000124
 82,-0.00000009,-0.00019451,0.00015245,0.00000027,0.00000236,-0.0000034
 7,-0.00000008,0.61946950,0.00021364,-0.00000641,-0.00000010,0.00041886
 ,0.00047581,0.00000005,0.00029316,0.00059756,-0.00000022,-0.00043468,0
 .00053673,0.00000013,0.00065994,-0.00037338,0.00000010,-0.00036601,-0.
 00123665,-0.00000042,-0.00103647,0.00044268,-0.00000035,0.00317199,0.0
 0079639,0.00000029,-0.00010693,-0.00051014,-0.00000031,0.00017775,0.00
 005263,0.00000017,-0.00309164,0.00065309,0.00000017,0.00010057,0.00004
 340,0.00000005,-0.04424948,-0.05577977,-0.00000521,-0.01083261,-0.0548
 0268,-0.00000919,-0.00393871,0.00380611,0.00000068,0.00041487,-0.00041
 118,0.,-0.00329716,-0.00279649,-0.00000088,-0.00020066,-0.00008256,0.0
 0000003,0.00198959,-0.00384569,-0.00000031,0.00020003,-0.00049993,-0.0
 0000004,0.00778399,-0.00267770,-0.00000076,-0.11719699,-0.13523369,-0.
 00000589,0.00001131,0.00014513,-0.00000082,0.00007653,0.00016094,0.000
 00043,-0.00001333,0.00006402,0.00000048,-0.00009164,-0.00002662,0.0000
 0013,-0.00003634,-0.00002934,-0.00000007,0.00003538,-0.00006537,-0.000
 00019,-0.00000640,0.00001846,-0.00000002,-0.00011342,-0.00000108,0.000
 00007,-0.00000708,-0.00000272,0.00000016,-0.00018043,-0.00010171,-0.00
 000002,0.00015176,-0.00008492,0.00000012,0.00000084,0.00000065,-0.0000
 0005,0.20117932,0.68571679,-0.00000003,-0.00000015,-0.00002918,0.00000
 008,-0.00000013,0.00002699,0.00000010,0.00000004,-0.00001551,0.0000001
 5,0.00000029,0.00004475,0.00000001,0.00000002,0.00004223,-0.00000013,0
 .00000010,-0.00057899,-0.00000008,-0.00000007,0.00004011,0.00000039,-0
 .00000003,0.00016841,-0.00000004,0.00000009,0.00001942,0.00000001,-0.0
 0000003,-0.00000800,-0.00000037,0.00000005,-0.00007667,0.,0.00000005,0
 .00000462,-0.00000410,-0.00000513,0.00605163,-0.00000137,-0.00000848,0
 .00705034,-0.00000018,0.00000021,0.00036182,0.00000011,-0.00000005,-0.
 00047828,-0.00000053,-0.00000061,0.00093091,-0.00000005,0.00000023,-0.
 00011685,0.00000036,-0.00000044,0.00039717,-0.00000004,-0.00000005,-0.
 00057126,0.00000066,-0.00000138,0.00324219,0.00000034,-0.00000595,-0.0
 5512176,-0.00000009,0.00000027,0.00001706,0.00000008,-0.00000032,-0.00
 002262,0.00000001,0.00000024,0.00001066,-0.00000030,0.00000006,-0.0000
 2573,-0.00000006,-0.00000015,-0.00000038,0.00000039,-0.00000019,0.0000
 2080,0.,0.00000005,-0.00000041,-0.00000015,0.00000002,-0.00001340,0.,-
 0.00000001,-0.00000043,0.00000002,0.00000003,0.00000839,-0.00000019,-0
 .00000009,-0.00000184,0.00000006,0.00000002,0.00000020,0.00000623,0.00
 007216,0.10315265,-0.00002273,0.00000005,0.00000008,0.00002605,-0.0000
 0679,0.00000001,0.00000736,-0.00000780,0.00000022,-0.00004945,0.000001
 86,0.00000007,-0.00001039,0.00001348,-0.00000020,0.00012169,0.00003484
 ,0.00000028,0.00012861,-0.00019353,0.00000037,-0.00027957,0.00002848,-
 0.00000032,-0.00002704,0.00000199,0.00000023,-0.00002167,0.00013947,-0
 .00000015,0.00031463,-0.00017382,0.00000004,0.00000222,0.00000099,-0.0
 0000007,-0.00457207,-0.00128701,-0.00000071,-0.00471184,0.00335238,0.0
 0000216,0.00199964,0.00052459,0.00000003,0.00001405,-0.00018495,-0.000
 00006,-0.00053940,0.00041646,0.00000058,0.00014772,0.00006833,-0.00000
 005,-0.00038884,-0.00036220,-0.00000040,0.00008223,-0.00015693,0.00000
 001,0.00104761,-0.00115177,-0.00000049,-0.00980296,-0.03308132,-0.0000
 0448,-0.00000209,0.00000018,0.00000093,0.00000031,0.00000318,-0.000000
 45,-0.00000352,0.00000030,-0.00000046,-0.00000144,-0.00000029,-0.00000
 010,-0.00000109,-0.00000256,0.00000006,-0.00000009,-0.00000118,0.00000
 021,-0.00000143,0.00000081,-0.00000001,-0.00000208,-0.00000107,-0.0000
 0006,-0.00000015,-0.00000012,-0.00000018,-0.00000202,-0.00000018,0.000
 00004,0.00000218,0.00000052,-0.00000004,-0.00000011,0.00000008,0.00000
 001,-0.06802217,-0.06754610,-0.00000801,0.07905035,-0.00000777,-0.0000
 0432,0.00000023,-0.00001401,-0.00000054,0.00000003,-0.00001561,-0.0000
 1286,0.00000064,0.00000508,-0.00004231,0.00000015,-0.00006701,0.000019
 07,-0.00000054,0.00007501,0.00000466,0.00000072,0.00003933,0.00001712,
 0.00000111,-0.00010481,-0.00002684,-0.00000092,0.00000286,0.00000604,0
 .00000065,-0.00001187,-0.00002664,-0.00000046,0.00008826,0.00000254,0.
 00000026,-0.00000184,-0.00000079,-0.00000017,-0.00086401,0.00235956,-0
 .00000394,0.00250835,-0.00002114,0.00000401,-0.00065831,-0.00031303,-0
 .00000042,-0.00002114,0.00008103,-0.00000009,0.00044991,-0.00006175,0.
 00000139,-0.00004190,-0.00002351,-0.00000005,-0.00033355,0.00031358,-0
 .00000084,0.00000581,-0.00000182,0.00000014,-0.00030107,-0.00037172,-0
 .00000113,-0.00452410,-0.00274776,0.00000038,0.00000055,-0.00000500,0.
 00000254,-0.00000514,0.00000088,-0.00000123,0.00000344,-0.00000314,-0.
 00000130,0.00000469,-0.00000070,-0.00000029,0.00000235,0.00000185,0.00
 000018,-0.00000409,0.00000289,0.00000057,0.00000066,-0.00000029,0.,0.0
 0000304,-0.00000288,-0.00000018,0.00000004,0.00000033,-0.00000050,0.00
 000313,0.00000209,0.00000009,-0.00000312,0.00000014,-0.00000016,-0.000
 00015,0.00000024,0.00000006,-0.07539995,-0.33366714,-0.00003976,0.0822
 7481,0.34462859,-0.00000002,0.,0.00000185,0.00000010,0.,-0.00001073,-0
 .00000006,0.,0.00003149,0.00000006,0.00000001,-0.00000265,0.00000007,0
 .,-0.00003529,0.00000004,-0.00000005,0.00017469,0.00000005,-0.00000009
 ,0.00001663,-0.00000001,0.,0.00011060,-0.00000003,0.00000004,-0.000010
 00,-0.00000001,0.00000005,-0.00002764,-0.00000005,0.,-0.00021294,-0.00
 000003,-0.00000002,0.00000178,0.00000048,-0.00000102,0.00890013,0.0000
 0049,-0.00000007,0.00081247,-0.00000016,-0.00000029,0.00212562,0.00000
 004,-0.00000001,0.00013619,0.00000009,-0.00000011,-0.00008142,-0.00000
 002,0.00000012,-0.00041388,0.00000002,-0.00000004,-0.00043585,-0.00000
 002,0.,-0.00017688,-0.00000007,0.00000011,0.00112394,-0.00000029,0.000
 00190,-0.00498697,0.,-0.00000008,0.00000674,-0.00000016,0.00000019,-0.
 00000953,-0.00000002,0.00000010,-0.00000696,0.00000017,-0.00000014,-0.
 00000431,-0.00000003,-0.00000001,0.00000406,-0.00000016,0.00000002,-0.
 00000141,0.,0.00000002,0.00000226,0.00000005,-0.00000019,-0.00000195,0
 .,0.00000001,0.00000102,0.00000006,0.00000002,-0.00000320,-0.00000004,
 -0.00000006,0.00000025,0.,0.00000002,0.00000097,-0.00000957,-0.0000409
 9,-0.02848949,0.00000954,0.00004238,0.02152673,-0.00220944,-0.00039998
 ,0.00000028,0.00151544,-0.00091495,-0.00000024,0.00069419,0.00008743,0
 .00000083,-0.00177152,-0.00050841,0.00000010,-0.00039321,-0.00072589,-
 0.00000064,-0.00006859,0.00005357,0.00000081,0.00015464,0.00157201,0.0
 0000134,-0.00018920,-0.00022789,-0.00000089,-0.00038833,0.00044607,0.0
 0000078,0.00038141,-0.00093137,-0.00000062,0.00010126,0.00005261,0.000
 00018,0.00282441,-0.00060453,-0.00000034,-0.00000693,0.00010045,-0.000
 00294,0.00002495,0.00008582,0.00000397,-0.00010729,0.00001351,-0.00000
 016,-0.00001014,-0.00000348,-0.00000001,0.00004626,-0.00006951,0.00000
 135,-0.00000249,0.00001518,-0.00000006,-0.00007530,0.00005337,-0.00000
 093,0.00005990,-0.00001017,0.00000009,0.00013397,-0.00007520,-0.000000
 93,-0.00016187,-0.00006342,-0.00000005,-0.11648026,-0.02745975,0.00000
 444,-0.03867851,0.01465407,0.00000341,-0.00753757,-0.00432504,-0.00000
 110,-0.00625756,0.00883471,0.00000105,-0.00009339,-0.00007194,0.000000
 18,0.01363079,0.00320476,0.00000026,0.00054291,0.00035798,0.00000014,-
 0.00109089,-0.01918948,-0.00000252,0.00064014,0.00006042,-0.00000060,-
 0.08056401,-0.00969153,0.00000557,-0.07465989,0.03594117,0.00000697,0.
 00551870,-0.00308853,-0.00000063,0.00011348,-0.00007644,0.00000029,-0.
 00000138,0.00000112,0.00000007,0.30443325,0.00129580,0.00051382,0.0000
 0019,-0.00079545,0.00042321,0.00000018,0.00002902,-0.00211730,-0.00000
 008,0.00058839,0.00083314,0.00000029,0.00054193,0.00025748,-0.00000035
 ,-0.00024491,-0.00026934,0.00000043,0.00024167,-0.00108583,0.00000057,
 -0.00013057,0.00037812,-0.00000062,0.00020583,-0.00002077,0.00000037,-
 0.00043988,0.00073758,-0.00000017,-0.00004357,-0.00001632,0.00000022,-
 0.00249484,0.00007788,-0.00000008,-0.00001769,-0.00006546,-0.00000215,
 -0.00000910,-0.00004406,0.00000306,0.00004122,-0.00000500,-0.00000003,
 0.00000510,0.00000159,-0.00000012,-0.00000708,0.00003320,0.00000097,-0
 .00000192,-0.00000465,-0.00000010,0.00002375,-0.00001105,-0.00000064,-
 0.00003952,-0.00000148,0.00000011,-0.00002833,0.00001348,-0.00000065,0
 .00007099,0.00004525,-0.00000002,-0.06639213,-0.08573733,-0.00000065,-
 0.02586008,-0.00660398,-0.00000036,0.00106661,0.00044259,-0.00000127,-
 0.00345934,0.00072872,0.00000031,0.00022413,0.00029568,0.00000016,0.00
 735536,-0.00140550,-0.00000066,-0.00110133,-0.00037919,-0.00000019,-0.
 02804532,-0.02036842,-0.00000058,0.00009356,0.00102954,-0.00000008,0.0
 4445799,-0.00470319,-0.00000617,0.05271592,-0.10131112,-0.00001175,0.0
 1729408,-0.01010465,-0.00000238,-0.00004655,0.00003600,0.00000007,0.00
 000167,0.00000064,0.00000012,0.00287567,0.22841568,0.00000027,0.000000
 06,-0.00035611,-0.00000051,-0.00000008,-0.00002913,0.00000030,-0.00000
 046,0.00070570,0.00000013,0.00000037,-0.00023143,-0.00000021,0.0000001
 6,-0.00007512,-0.00000034,0.00000015,-0.00001171,-0.00000019,-0.000000
 04,0.00003510,0.,0.,0.00000772,0.00000011,-0.00000003,-0.00002874,-0.0
 0000004,0.,-0.00001696,0.00000007,0.,0.00000675,-0.00000033,0.00000009
 ,0.00070852,0.00000025,0.00000049,0.00000057,-0.00000040,-0.00000073,-
 0.00000452,0.00000047,-0.00000010,-0.00000238,-0.00000008,0.00000001,0
 .00000059,-0.00000060,0.00000031,0.00000482,-0.00000004,-0.00000011,0.
 00000253,0.00000012,0.00000029,-0.00001800,0.,0.00000004,0.00000479,0.
 00000036,-0.00000089,0.00003636,0.00000002,0.00000019,0.00000283,-0.00
 000262,-0.00000459,-0.02994039,0.00000013,-0.00000327,0.00251038,0.000
 00100,-0.00000023,0.00376803,-0.00000102,0.00000021,-0.00101598,0.0000
 0008,0.,-0.00025031,0.00000117,-0.00000107,0.00374155,-0.00000013,-0.0
 0000024,0.00093816,-0.00000365,-0.00000017,-0.00138087,-0.00000013,0.0
 0000030,-0.00185588,0.00001209,-0.00000270,0.02235513,0.00000928,-0.00
 001059,-0.03603999,0.00000181,-0.00000113,-0.00006635,0.00000020,0.000
 00003,0.00000014,-0.00000012,-0.00000028,0.00000012,-0.00001755,0.0000
 2342,0.03649304,-0.00018904,-0.00022774,0.00000009,0.00015417,0.001572
 89,0.00000014,-0.00007044,0.00005443,0.00000041,-0.00039426,-0.0007261
 4,-0.00000010,-0.00177085,-0.00050739,-0.00000027,0.00069591,0.0000867
 2,0.00000042,0.00151502,-0.00091614,0.00000035,-0.00220966,-0.00040048
 ,-0.00000041,0.00038167,-0.00093232,0.00000020,-0.00038843,0.00044690,
 -0.00000012,0.00282497,-0.00060383,-0.00000011,0.00010096,0.00005210,-
 0.00000004,-0.03867776,0.01464934,0.00000216,-0.11647902,-0.02745651,0
 .00000062,-0.00109255,-0.01918718,-0.00000263,0.00064014,0.00006029,-0
 .00000008,0.01363586,0.00320365,0.00000071,0.00054301,0.00035757,0.000
 00005,-0.00626140,0.00883677,0.00000096,-0.00009336,-0.00007250,0.0000
 0002,-0.00753784,-0.00432399,-0.00000055,-0.08056403,-0.00969158,0.000
 00228,0.00002359,0.00008342,0.00000098,-0.00000570,0.00010398,-0.00000
 046,0.00013510,-0.00007792,-0.00000063,-0.00007297,0.00005275,-0.00000
 017,0.00005989,-0.00000982,0.00000009,0.00004184,-0.00006844,0.0000002
 0,-0.00000271,0.00001551,0.00000006,-0.00010531,0.00001237,-0.00000008
 ,-0.00001018,-0.00000346,-0.00000017,-0.00016214,-0.00006314,0.0000000
 1,0.00011375,-0.00007667,-0.00000028,-0.00000162,0.00000112,0.00000009
 ,-0.07466162,0.03594298,0.00000642,0.00551888,-0.00308899,-0.00000057,
 -0.00006793,0.00002892,0.00000008,0.30443409,-0.00013030,0.00037802,-0
 .00000019,0.00023920,-0.00108477,-0.00000029,-0.00024403,-0.00026932,-
 0.00000052,0.00053986,0.00025749,-0.00000028,0.00058598,0.00083304,0.0
 0000076,0.00002896,-0.00211686,-0.00000120,-0.00079768,0.00042488,-0.0
 0000114,0.00129606,0.00051367,0.00000119,-0.00043917,0.00073629,-0.000
 00053,0.00020645,-0.00002219,0.00000050,-0.00249348,0.00007855,-0.0000
 0034,-0.00004220,-0.00001552,0.00000024,-0.02585789,-0.00660488,0.0000
 0313,-0.06639281,-0.08573962,-0.00001027,-0.02804390,-0.02036607,-0.00
 000158,0.00009302,0.00102951,0.00000052,0.00735603,-0.00140401,-0.0000
 0247,-0.00110146,-0.00038073,0.00000002,-0.00346198,0.00073300,0.00000
 140,0.00022459,0.00029619,-0.00000011,0.00106850,0.00043687,0.00000059
 ,0.04445725,-0.00470236,-0.00000518,-0.00001006,-0.00004469,-0.0000030
 3,-0.00001440,-0.00006877,0.00000145,-0.00002687,0.00000885,0.00000136
 ,0.00001953,-0.00000639,0.00000023,-0.00003893,-0.00000112,-0.00000018
 ,-0.00000408,0.00003382,-0.00000069,-0.00000203,-0.00000598,0.00000012
 ,0.00004133,-0.00000116,0.00000017,0.00000480,0.00000143,0.00000062,0.
 00007003,0.00004557,-0.00000015,-0.00004452,0.00003745,-0.00000014,0.0
 0000103,-0.00000133,0.00000005,0.05271992,-0.10131124,-0.00001098,0.01
 729316,-0.01010707,-0.00000195,0.00002759,-0.00000895,0.00000063,0.002
 87252,0.22841840,0.00000038,0.00000068,0.00000746,-0.00000101,0.000001
 17,0.00003524,0.00000028,0.00000003,-0.00001116,-0.00000139,-0.0000011
 9,-0.00007548,-0.00000087,-0.00000045,-0.00023138,0.00000061,-0.000000
 44,0.00070596,-0.00000053,0.00000145,-0.00002912,0.00000031,0.00000012
 ,-0.00035591,0.00000050,-0.00000124,-0.00001698,0.00000009,-0.00000034
 ,-0.00002855,0.00000069,0.00000058,0.00070833,0.00000043,0.00000003,0.
 00000691,-0.00000393,-0.00000186,0.00251028,-0.00000579,-0.00000907,-0
 .02994037,-0.00000326,-0.00000156,-0.00138107,-0.00000063,0.00000055,-
 0.00185586,0.00000181,0.00000032,0.00374160,0.,-0.00000172,0.00093824,
 -0.00000135,0.00000207,-0.00101603,0.00000024,0.00000048,-0.00025032,0
 .00000081,-0.00000220,0.00376774,0.00001034,-0.00000282,0.02235514,0.0
 0000037,-0.00000025,-0.00000378,0.00000123,-0.00000038,-0.00000008,0.0
 0000017,-0.00000185,0.00003601,-0.00000046,0.00000112,-0.00001841,0.00
 000050,0.00000071,0.00000485,-0.00000002,0.00000054,0.00000508,-0.0000
 0005,-0.00000042,0.00000268,0.00000008,0.00000166,-0.00000245,0.000000
 04,-0.00000006,0.00000070,-0.00000075,-0.00000038,0.00000272,0.0000012
 9,0.00000085,-0.00000033,-0.00000028,-0.00000032,0.00000033,0.00001026
 ,-0.00000941,-0.03603970,0.00000147,-0.00000328,-0.00006644,-0.0000018
 9,-0.00000138,0.00000105,-0.00000967,0.00002825,0.03649309\\0.00000012
 ,0.00000005,0.00000020,-0.00000023,-0.00000057,0.00000194,-0.00000051,
 0.00000048,-0.00000099,0.00000061,-0.00000064,0.00000034,-0.00000038,0
 .00000059,-0.00000066,0.00000040,-0.00000040,0.00000055,0.00000014,0.0
 0000028,0.00000480,0.00000003,-0.00000002,-0.00000368,-0.00000034,0.00
 000032,-0.00000090,0.00000007,-0.00000009,-0.00000168,0.00000013,-0.00
 000029,0.00000053,-0.00000053,0.00000033,-0.00000051,-0.00000020,-0.00
 000056,0.00000114,0.00000030,-0.00000035,0.00000014,-0.00000026,-0.000
 00054,-0.00000109,-0.00000025,-0.00000071,0.00000039,-0.00000039,-0.00
 000041,0.00000060,-0.00000036,-0.00000046,-0.00000015,-0.00000010,-0.0
 0000048,-0.00000075,-0.00000030,-0.00000025,0.00000031,-0.00000019,-0.
 00000007,0.00000056,0.00000086,-0.00000051,-0.00000174,0.00000068,0.00
 000065,0.00000004,-0.00000049,0.00000058,-0.00000068,0.00000050,0.0000
 0024,-0.00000062,0.00000003,0.00000040,0.00000015,0.00000062,0.0000003
 1,0.00000006,0.00000021,0.00000043,-0.00000048,0.00000039,0.00000047,0
 .00000013,0.00000004,0.00000066,0.00000118,0.00000026,0.00000065,-0.00
 000042,0.00000018,0.00000016,0.00000080,-0.00000043,0.00000081,-0.0000
 0045,-0.00000028,0.00000057,0.00000012,-0.00000096,-0.00000014,0.00000
 178,0.00000048,-0.00000068,-0.00000029,-0.00000024,0.00000041,-0.00000
 003,0.00000040,-0.00000123,-0.00000064\\\@


 "THE TIME HAS COME", THE WALRUS SAID,
 "TO TALK OF MANY THINGS,
 OF SHOES AND SHIPS AND SEALING WAX,
 OF CABBAGES AND KINGS,
 AND WHY THE SEA IS BOILING HOT,
 AND WHETHER PIGS HAVE WINGS."
 Job cpu time:  0 days  4 hours  5 minutes 36.4 seconds.
 File lengths (MBytes):  RWF=   1411 Int=      0 D2E=      0 Chk=     26 Scr=      1
 Normal termination of Gaussian 09 at Fri Aug 25 03:27:54 2023.
