 Entering Link 1 = C:\G09W\l1.exe PID=     25452.
  
 Copyright (c) 1988,1990,1992,1993,1995,1998,2003,2009,2010,
            Gaussian, Inc.  All Rights Reserved.
  
 This is part of the Gaussian(R) 09 program.  It is based on
 the Gaussian(R) 03 system (copyright 2003, Gaussian, Inc.),
 the Gaussian(R) 98 system (copyright 1998, Gaussian, Inc.),
 the Gaussian(R) 94 system (copyright 1995, Gaussian, Inc.),
 the Gaussian 92(TM) system (copyright 1992, Gaussian, Inc.),
 the Gaussian 90(TM) system (copyright 1990, Gaussian, Inc.),
 the Gaussian 88(TM) system (copyright 1988, Gaussian, Inc.),
 the Gaussian 86(TM) system (copyright 1986, Carnegie Mellon
 University), and the Gaussian 82(TM) system (copyright 1983,
 Carnegie Mellon University). Gaussian is a federally registered
 trademark of Gaussian, Inc.
  
 This software contains proprietary and confidential information,
 including trade secrets, belonging to Gaussian, Inc.
  
 This software is provided under written license and may be
 used, copied, transmitted, or stored only in accord with that
 written license.
  
 The following legend is applicable only to US Government
 contracts under FAR:
  
                    RESTRICTED RIGHTS LEGEND
  
 Use, reproduction and disclosure by the US Government is
 subject to restrictions as set forth in subparagraphs (a)
 and (c) of the Commercial Computer Software - Restricted
 Rights clause in FAR 52.227-19.
  
 Gaussian, Inc.
 340 Quinnipiac St., Bldg. 40, Wallingford CT 06492
  
  
 ---------------------------------------------------------------
 Warning -- This program may not be used in any manner that
 competes with the business of Gaussian, Inc. or will provide
 assistance to any competitor of Gaussian, Inc.  The licensee
 of this program is prohibited from giving any competitor of
 Gaussian, Inc. access to this program.  By using this program,
 the user acknowledges that Gaussian, Inc. is engaged in the
 business of creating and licensing software in the field of
 computational chemistry and represents and warrants to the
 licensee that it is not a competitor of Gaussian, Inc. and that
 it will not use this program in any manner prohibited above.
 ---------------------------------------------------------------
  

 Cite this work as:
 Gaussian 09, Revision B.01,
 M. J. Frisch, G. W. Trucks, H. B. Schlegel, G. E. Scuseria, 
 M. A. Robb, J. R. Cheeseman, G. Scalmani, V. Barone, B. Mennucci, 
 G. A. Petersson, H. Nakatsuji, M. Caricato, X. Li, H. P. Hratchian, 
 A. F. Izmaylov, J. Bloino, G. Zheng, J. L. Sonnenberg, M. Hada, 
 M. Ehara, K. Toyota, R. Fukuda, J. Hasegawa, M. Ishida, T. Nakajima, 
 Y. Honda, O. Kitao, H. Nakai, T. Vreven, J. A. Montgomery, Jr., 
 J. E. Peralta, F. Ogliaro, M. Bearpark, J. J. Heyd, E. Brothers, 
 K. N. Kudin, V. N. Staroverov, T. Keith, R. Kobayashi, J. Normand, 
 K. Raghavachari, A. Rendell, J. C. Burant, S. S. Iyengar, J. Tomasi, 
 M. Cossi, N. Rega, J. M. Millam, M. Klene, J. E. Knox, J. B. Cross, 
 V. Bakken, C. Adamo, J. Jaramillo, R. Gomperts, R. E. Stratmann, 
 O. Yazyev, A. J. Austin, R. Cammi, C. Pomelli, J. W. Ochterski, 
 R. L. Martin, K. Morokuma, V. G. Zakrzewski, G. A. Voth, 
 P. Salvador, J. J. Dannenberg, S. Dapprich, A. D. Daniels, 
 O. Farkas, J. B. Foresman, J. V. Ortiz, J. Cioslowski, 
 and D. J. Fox, Gaussian, Inc., Wallingford CT, 2010.
 
 ******************************************
 Gaussian 09:  IA32W-G09RevB.01 12-Aug-2010
                05-Oct-2023 
 ******************************************
 %nprocshared=6
 Will use up to    6 processors via shared memory.
 %chk=G:\Meu Drive\POS-DOC-IME\SUBSTITUINTES-DOADORES\DPP-substituido\DPP-SUB-8\D
 PP-SUB-8-CATION-cont.chk
 ----------------------------------------------------
 # opt=tight freq b3lyp/6-31+g(d,p) geom=connectivity
 ----------------------------------------------------
 1/7=10,14=-1,18=20,19=15,26=3,38=1,57=2/1,3;
 2/9=110,12=2,17=6,18=5,40=1/2;
 3/5=1,6=6,7=111,11=2,16=1,25=1,30=1,71=1,74=-5/1,2,3;
 4//1;
 5/5=2,38=5/2;
 6/7=2,8=2,9=2,10=2,28=1/1;
 7//1,2,3,16;
 1/7=10,14=-1,18=20,19=15/3(2);
 2/9=110/2;
 99//99;
 2/9=110/2;
 3/5=1,6=6,7=111,11=2,16=1,25=1,30=1,71=1,74=-5/1,2,3;
 4/5=5,16=3/1;
 5/5=2,38=5/2;
 7//1,2,3,16;
 1/7=10,14=-1,18=20,19=15/3(-5);
 2/9=110/2;
 6/7=2,8=2,9=2,10=2,19=2,28=1/1;
 99/9=1/99;
 -------
 Energy:
 -------
 Symbolic Z-matrix:
 Charge =  1 Multiplicity = 2
 N                    -1.61395   1.40735  -0.00011 
 C                    -0.24495   1.79863  -0.00023 
 C                    -1.78464   0.0576    0.00008 
 C                    -0.47008  -0.51284   0.00009 
 C                     0.47008   0.51284  -0.00009 
 C                     1.78464  -0.0576   -0.00008 
 C                     0.24495  -1.79863   0.00023 
 N                     1.61395  -1.40735   0.00011 
 O                     0.13335   2.9548   -0.0004 
 O                    -0.13335  -2.9548    0.00039 
 H                     2.40813  -2.05195   0.00015 
 H                    -2.40813   2.05195  -0.00015 
 C                     4.28101  -0.1933   -0.00018 
 C                     5.52756   0.46996  -0.00033 
 C                     5.61793   1.86664  -0.00052 
 H                     6.58165   2.36564  -0.00063 
 C                     4.43436   2.60833  -0.00056 
 H                     4.48272   3.69179  -0.0007 
 C                     3.1869    1.98018  -0.00042 
 H                     2.28724   2.58712  -0.00045 
 C                     3.07526   0.57207  -0.00023 
 N                     4.35474  -1.57176  -0.00001 
 C                    -5.52756  -0.46996   0.00034 
 C                    -4.28101   0.1933    0.00018 
 C                    -3.07526  -0.57207   0.00023 
 C                    -3.1869   -1.98018   0.00042 
 H                    -2.28724  -2.58712   0.00046 
 C                    -4.43436  -2.60833   0.00057 
 H                    -4.48272  -3.69179   0.00071 
 C                    -5.61793  -1.86664   0.00053 
 H                    -6.58165  -2.36564   0.00064 
 N                    -4.35474   1.57176   0.00001 
 C                    -5.59744   1.96691   0.00002 
 H                    -5.88874   3.01113  -0.00011 
 C                     5.59744  -1.96691  -0.00002 
 H                     5.88874  -3.01113   0.0001 
 S                    -6.8117    0.71743   0.00024 
 S                     6.8117   -0.71743  -0.00024 
 

 GradGradGradGradGradGradGradGradGradGradGradGradGradGradGradGradGradGrad
 Berny optimization.
 Initialization pass.
                           ----------------------------
                           !    Initial Parameters    !
                           ! (Angstroms and Degrees)  !
 --------------------------                            --------------------------
 ! Name  Definition              Value          Derivative Info.                !
 --------------------------------------------------------------------------------
 ! R1    R(1,2)                  1.4238         estimate D2E/DX2                !
 ! R2    R(1,3)                  1.3605         estimate D2E/DX2                !
 ! R3    R(1,12)                 1.0229         estimate D2E/DX2                !
 ! R4    R(2,5)                  1.4712         estimate D2E/DX2                !
 ! R5    R(2,9)                  1.2165         estimate D2E/DX2                !
 ! R6    R(3,4)                  1.433          estimate D2E/DX2                !
 ! R7    R(3,25)                 1.436          estimate D2E/DX2                !
 ! R8    R(4,5)                  1.3914         estimate D2E/DX2                !
 ! R9    R(4,7)                  1.4712         estimate D2E/DX2                !
 ! R10   R(5,6)                  1.433          estimate D2E/DX2                !
 ! R11   R(6,8)                  1.3605         estimate D2E/DX2                !
 ! R12   R(6,21)                 1.436          estimate D2E/DX2                !
 ! R13   R(7,8)                  1.4238         estimate D2E/DX2                !
 ! R14   R(7,10)                 1.2165         estimate D2E/DX2                !
 ! R15   R(8,11)                 1.0229         estimate D2E/DX2                !
 ! R16   R(11,22)                2.005          estimate D2E/DX2                !
 ! R17   R(12,32)                2.005          estimate D2E/DX2                !
 ! R18   R(13,14)                1.412          estimate D2E/DX2                !
 ! R19   R(13,21)                1.4282         estimate D2E/DX2                !
 ! R20   R(13,22)                1.3804         estimate D2E/DX2                !
 ! R21   R(14,15)                1.3996         estimate D2E/DX2                !
 ! R22   R(14,38)                1.749          estimate D2E/DX2                !
 ! R23   R(15,16)                1.0852         estimate D2E/DX2                !
 ! R24   R(15,17)                1.3968         estimate D2E/DX2                !
 ! R25   R(17,18)                1.0845         estimate D2E/DX2                !
 ! R26   R(17,19)                1.3967         estimate D2E/DX2                !
 ! R27   R(19,20)                1.0852         estimate D2E/DX2                !
 ! R28   R(19,21)                1.4125         estimate D2E/DX2                !
 ! R29   R(22,35)                1.304          estimate D2E/DX2                !
 ! R30   R(23,24)                1.412          estimate D2E/DX2                !
 ! R31   R(23,30)                1.3996         estimate D2E/DX2                !
 ! R32   R(23,37)                1.749          estimate D2E/DX2                !
 ! R33   R(24,25)                1.4282         estimate D2E/DX2                !
 ! R34   R(24,32)                1.3804         estimate D2E/DX2                !
 ! R35   R(25,26)                1.4125         estimate D2E/DX2                !
 ! R36   R(26,27)                1.0852         estimate D2E/DX2                !
 ! R37   R(26,28)                1.3967         estimate D2E/DX2                !
 ! R38   R(28,29)                1.0845         estimate D2E/DX2                !
 ! R39   R(28,30)                1.3968         estimate D2E/DX2                !
 ! R40   R(30,31)                1.0852         estimate D2E/DX2                !
 ! R41   R(32,33)                1.304          estimate D2E/DX2                !
 ! R42   R(33,34)                1.0841         estimate D2E/DX2                !
 ! R43   R(33,37)                1.7423         estimate D2E/DX2                !
 ! R44   R(35,36)                1.0841         estimate D2E/DX2                !
 ! R45   R(35,38)                1.7423         estimate D2E/DX2                !
 ! A1    A(2,1,3)              113.1586         estimate D2E/DX2                !
 ! A2    A(2,1,12)             124.9845         estimate D2E/DX2                !
 ! A3    A(3,1,12)             121.8569         estimate D2E/DX2                !
 ! A4    A(1,2,5)              103.1274         estimate D2E/DX2                !
 ! A5    A(1,2,9)              124.0692         estimate D2E/DX2                !
 ! A6    A(5,2,9)              132.8034         estimate D2E/DX2                !
 ! A7    A(1,3,4)              106.2501         estimate D2E/DX2                !
 ! A8    A(1,3,25)             123.2144         estimate D2E/DX2                !
 ! A9    A(4,3,25)             130.5355         estimate D2E/DX2                !
 ! A10   A(3,4,5)              109.0515         estimate D2E/DX2                !
 ! A11   A(3,4,7)              142.5361         estimate D2E/DX2                !
 ! A12   A(5,4,7)              108.4124         estimate D2E/DX2                !
 ! A13   A(2,5,4)              108.4124         estimate D2E/DX2                !
 ! A14   A(2,5,6)              142.5361         estimate D2E/DX2                !
 ! A15   A(4,5,6)              109.0515         estimate D2E/DX2                !
 ! A16   A(5,6,8)              106.2501         estimate D2E/DX2                !
 ! A17   A(5,6,21)             130.5355         estimate D2E/DX2                !
 ! A18   A(8,6,21)             123.2144         estimate D2E/DX2                !
 ! A19   A(4,7,8)              103.1274         estimate D2E/DX2                !
 ! A20   A(4,7,10)             132.8034         estimate D2E/DX2                !
 ! A21   A(8,7,10)             124.0692         estimate D2E/DX2                !
 ! A22   A(6,8,7)              113.1586         estimate D2E/DX2                !
 ! A23   A(6,8,11)             121.8569         estimate D2E/DX2                !
 ! A24   A(7,8,11)             124.9845         estimate D2E/DX2                !
 ! A25   A(14,13,21)           119.5776         estimate D2E/DX2                !
 ! A26   A(14,13,22)           114.9547         estimate D2E/DX2                !
 ! A27   A(21,13,22)           125.4677         estimate D2E/DX2                !
 ! A28   A(13,14,15)           121.7183         estimate D2E/DX2                !
 ! A29   A(13,14,38)           109.2257         estimate D2E/DX2                !
 ! A30   A(15,14,38)           129.0559         estimate D2E/DX2                !
 ! A31   A(14,15,16)           121.0765         estimate D2E/DX2                !
 ! A32   A(14,15,17)           118.3713         estimate D2E/DX2                !
 ! A33   A(16,15,17)           120.5522         estimate D2E/DX2                !
 ! A34   A(15,17,18)           119.5175         estimate D2E/DX2                !
 ! A35   A(15,17,19)           121.1995         estimate D2E/DX2                !
 ! A36   A(18,17,19)           119.2831         estimate D2E/DX2                !
 ! A37   A(17,19,20)           119.2679         estimate D2E/DX2                !
 ! A38   A(17,19,21)           121.2602         estimate D2E/DX2                !
 ! A39   A(20,19,21)           119.4718         estimate D2E/DX2                !
 ! A40   A(6,21,13)            121.587          estimate D2E/DX2                !
 ! A41   A(6,21,19)            120.54           estimate D2E/DX2                !
 ! A42   A(13,21,19)           117.8731         estimate D2E/DX2                !
 ! A43   A(13,22,35)           110.7012         estimate D2E/DX2                !
 ! A44   A(24,23,30)           121.7183         estimate D2E/DX2                !
 ! A45   A(24,23,37)           109.2257         estimate D2E/DX2                !
 ! A46   A(30,23,37)           129.0559         estimate D2E/DX2                !
 ! A47   A(23,24,25)           119.5776         estimate D2E/DX2                !
 ! A48   A(23,24,32)           114.9547         estimate D2E/DX2                !
 ! A49   A(25,24,32)           125.4677         estimate D2E/DX2                !
 ! A50   A(3,25,24)            121.587          estimate D2E/DX2                !
 ! A51   A(3,25,26)            120.54           estimate D2E/DX2                !
 ! A52   A(24,25,26)           117.8731         estimate D2E/DX2                !
 ! A53   A(25,26,27)           119.4718         estimate D2E/DX2                !
 ! A54   A(25,26,28)           121.2602         estimate D2E/DX2                !
 ! A55   A(27,26,28)           119.2679         estimate D2E/DX2                !
 ! A56   A(26,28,29)           119.2831         estimate D2E/DX2                !
 ! A57   A(26,28,30)           121.1995         estimate D2E/DX2                !
 ! A58   A(29,28,30)           119.5175         estimate D2E/DX2                !
 ! A59   A(23,30,28)           118.3713         estimate D2E/DX2                !
 ! A60   A(23,30,31)           121.0765         estimate D2E/DX2                !
 ! A61   A(28,30,31)           120.5522         estimate D2E/DX2                !
 ! A62   A(24,32,33)           110.7012         estimate D2E/DX2                !
 ! A63   A(32,33,34)           123.2268         estimate D2E/DX2                !
 ! A64   A(32,33,37)           116.5411         estimate D2E/DX2                !
 ! A65   A(34,33,37)           120.2321         estimate D2E/DX2                !
 ! A66   A(22,35,36)           123.2268         estimate D2E/DX2                !
 ! A67   A(22,35,38)           116.5411         estimate D2E/DX2                !
 ! A68   A(36,35,38)           120.2321         estimate D2E/DX2                !
 ! A69   A(23,37,33)            88.5773         estimate D2E/DX2                !
 ! A70   A(14,38,35)            88.5773         estimate D2E/DX2                !
 ! D1    D(3,1,2,5)             -0.0006         estimate D2E/DX2                !
 ! D2    D(3,1,2,9)           -179.9997         estimate D2E/DX2                !
 ! D3    D(12,1,2,5)           179.9995         estimate D2E/DX2                !
 ! D4    D(12,1,2,9)             0.0003         estimate D2E/DX2                !
 ! D5    D(2,1,3,4)              0.0005         estimate D2E/DX2                !
 ! D6    D(2,1,3,25)          -179.9998         estimate D2E/DX2                !
 ! D7    D(12,1,3,4)          -179.9996         estimate D2E/DX2                !
 ! D8    D(12,1,3,25)            0.0002         estimate D2E/DX2                !
 ! D9    D(1,2,5,4)              0.0004         estimate D2E/DX2                !
 ! D10   D(1,2,5,6)           -179.9996         estimate D2E/DX2                !
 ! D11   D(9,2,5,4)            179.9995         estimate D2E/DX2                !
 ! D12   D(9,2,5,6)             -0.0005         estimate D2E/DX2                !
 ! D13   D(1,3,4,5)             -0.0002         estimate D2E/DX2                !
 ! D14   D(1,3,4,7)            179.9996         estimate D2E/DX2                !
 ! D15   D(25,3,4,5)          -179.9999         estimate D2E/DX2                !
 ! D16   D(25,3,4,7)            -0.0002         estimate D2E/DX2                !
 ! D17   D(1,3,25,24)            0.0002         estimate D2E/DX2                !
 ! D18   D(1,3,25,26)         -179.9997         estimate D2E/DX2                !
 ! D19   D(4,3,25,24)          179.9999         estimate D2E/DX2                !
 ! D20   D(4,3,25,26)            0.0            estimate D2E/DX2                !
 ! D21   D(3,4,5,2)             -0.0002         estimate D2E/DX2                !
 ! D22   D(3,4,5,6)            179.9998         estimate D2E/DX2                !
 ! D23   D(7,4,5,2)            180.0            estimate D2E/DX2                !
 ! D24   D(7,4,5,6)              0.0            estimate D2E/DX2                !
 ! D25   D(3,4,7,8)           -179.9999         estimate D2E/DX2                !
 ! D26   D(3,4,7,10)             0.0006         estimate D2E/DX2                !
 ! D27   D(5,4,7,8)             -0.0002         estimate D2E/DX2                !
 ! D28   D(5,4,7,10)          -179.9996         estimate D2E/DX2                !
 ! D29   D(2,5,6,8)           -179.9998         estimate D2E/DX2                !
 ! D30   D(2,5,6,21)            -0.0001         estimate D2E/DX2                !
 ! D31   D(4,5,6,8)              0.0002         estimate D2E/DX2                !
 ! D32   D(4,5,6,21)           180.0            estimate D2E/DX2                !
 ! D33   D(5,6,8,7)             -0.0003         estimate D2E/DX2                !
 ! D34   D(5,6,8,11)           179.9997         estimate D2E/DX2                !
 ! D35   D(21,6,8,7)           179.9999         estimate D2E/DX2                !
 ! D36   D(21,6,8,11)           -0.0001         estimate D2E/DX2                !
 ! D37   D(5,6,21,13)         -179.9997         estimate D2E/DX2                !
 ! D38   D(5,6,21,19)            0.0003         estimate D2E/DX2                !
 ! D39   D(8,6,21,13)            0.0            estimate D2E/DX2                !
 ! D40   D(8,6,21,19)          180.0            estimate D2E/DX2                !
 ! D41   D(4,7,8,6)              0.0003         estimate D2E/DX2                !
 ! D42   D(4,7,8,11)          -179.9997         estimate D2E/DX2                !
 ! D43   D(10,7,8,6)           179.9998         estimate D2E/DX2                !
 ! D44   D(10,7,8,11)           -0.0002         estimate D2E/DX2                !
 ! D45   D(21,13,14,15)          0.0            estimate D2E/DX2                !
 ! D46   D(21,13,14,38)        179.9999         estimate D2E/DX2                !
 ! D47   D(22,13,14,15)        179.9999         estimate D2E/DX2                !
 ! D48   D(22,13,14,38)         -0.0001         estimate D2E/DX2                !
 ! D49   D(14,13,21,6)        -180.0            estimate D2E/DX2                !
 ! D50   D(14,13,21,19)          0.0            estimate D2E/DX2                !
 ! D51   D(22,13,21,6)           0.0001         estimate D2E/DX2                !
 ! D52   D(22,13,21,19)       -179.9999         estimate D2E/DX2                !
 ! D53   D(14,13,22,35)          0.0001         estimate D2E/DX2                !
 ! D54   D(21,13,22,35)        180.0            estimate D2E/DX2                !
 ! D55   D(13,14,15,16)       -180.0            estimate D2E/DX2                !
 ! D56   D(13,14,15,17)          0.0            estimate D2E/DX2                !
 ! D57   D(38,14,15,16)          0.0            estimate D2E/DX2                !
 ! D58   D(38,14,15,17)       -179.9999         estimate D2E/DX2                !
 ! D59   D(13,14,38,35)          0.0001         estimate D2E/DX2                !
 ! D60   D(15,14,38,35)       -179.9999         estimate D2E/DX2                !
 ! D61   D(14,15,17,18)        180.0            estimate D2E/DX2                !
 ! D62   D(14,15,17,19)          0.0            estimate D2E/DX2                !
 ! D63   D(16,15,17,18)          0.0            estimate D2E/DX2                !
 ! D64   D(16,15,17,19)       -180.0            estimate D2E/DX2                !
 ! D65   D(15,17,19,20)       -180.0            estimate D2E/DX2                !
 ! D66   D(15,17,19,21)          0.0            estimate D2E/DX2                !
 ! D67   D(18,17,19,20)          0.0001         estimate D2E/DX2                !
 ! D68   D(18,17,19,21)       -180.0            estimate D2E/DX2                !
 ! D69   D(17,19,21,6)        -180.0            estimate D2E/DX2                !
 ! D70   D(17,19,21,13)          0.0            estimate D2E/DX2                !
 ! D71   D(20,19,21,6)           0.0            estimate D2E/DX2                !
 ! D72   D(20,19,21,13)        180.0            estimate D2E/DX2                !
 ! D73   D(13,22,35,36)       -180.0            estimate D2E/DX2                !
 ! D74   D(13,22,35,38)          0.0            estimate D2E/DX2                !
 ! D75   D(30,23,24,25)          0.0001         estimate D2E/DX2                !
 ! D76   D(30,23,24,32)       -179.9999         estimate D2E/DX2                !
 ! D77   D(37,23,24,25)       -179.9999         estimate D2E/DX2                !
 ! D78   D(37,23,24,32)          0.0002         estimate D2E/DX2                !
 ! D79   D(24,23,30,28)         -0.0001         estimate D2E/DX2                !
 ! D80   D(24,23,30,31)        180.0            estimate D2E/DX2                !
 ! D81   D(37,23,30,28)        179.9999         estimate D2E/DX2                !
 ! D82   D(37,23,30,31)         -0.0001         estimate D2E/DX2                !
 ! D83   D(24,23,37,33)         -0.0002         estimate D2E/DX2                !
 ! D84   D(30,23,37,33)        179.9998         estimate D2E/DX2                !
 ! D85   D(23,24,25,3)        -180.0            estimate D2E/DX2                !
 ! D86   D(23,24,25,26)         -0.0001         estimate D2E/DX2                !
 ! D87   D(32,24,25,3)           0.0            estimate D2E/DX2                !
 ! D88   D(32,24,25,26)        179.9999         estimate D2E/DX2                !
 ! D89   D(23,24,32,33)          0.0001         estimate D2E/DX2                !
 ! D90   D(25,24,32,33)       -179.9999         estimate D2E/DX2                !
 ! D91   D(3,25,26,27)          -0.0001         estimate D2E/DX2                !
 ! D92   D(3,25,26,28)         179.9999         estimate D2E/DX2                !
 ! D93   D(24,25,26,27)       -180.0            estimate D2E/DX2                !
 ! D94   D(24,25,26,28)          0.0            estimate D2E/DX2                !
 ! D95   D(25,26,28,29)        180.0            estimate D2E/DX2                !
 ! D96   D(25,26,28,30)          0.0            estimate D2E/DX2                !
 ! D97   D(27,26,28,29)          0.0            estimate D2E/DX2                !
 ! D98   D(27,26,28,30)        180.0            estimate D2E/DX2                !
 ! D99   D(26,28,30,23)          0.0001         estimate D2E/DX2                !
 ! D100  D(26,28,30,31)        180.0            estimate D2E/DX2                !
 ! D101  D(29,28,30,23)       -179.9999         estimate D2E/DX2                !
 ! D102  D(29,28,30,31)          0.0            estimate D2E/DX2                !
 ! D103  D(24,32,33,34)        180.0            estimate D2E/DX2                !
 ! D104  D(24,32,33,37)         -0.0003         estimate D2E/DX2                !
 ! D105  D(32,33,37,23)          0.0003         estimate D2E/DX2                !
 ! D106  D(34,33,37,23)       -179.9999         estimate D2E/DX2                !
 ! D107  D(22,35,38,14)         -0.0001         estimate D2E/DX2                !
 ! D108  D(36,35,38,14)        179.9999         estimate D2E/DX2                !
 --------------------------------------------------------------------------------
 Trust Radius=3.00D-01 FncErr=1.00D-07 GrdErr=1.00D-06
 Number of steps in this run=    228 maximum allowed number of steps=    228.
 GradGradGradGradGradGradGradGradGradGradGradGradGradGradGradGradGradGrad

                          Input orientation:                          
 ---------------------------------------------------------------------
 Center     Atomic      Atomic             Coordinates (Angstroms)
 Number     Number       Type             X           Y           Z
 ---------------------------------------------------------------------
      1          7           0       -1.613945    1.407347   -0.000106
      2          6           0       -0.244954    1.798632   -0.000233
      3          6           0       -1.784639    0.057598    0.000077
      4          6           0       -0.470078   -0.512835    0.000088
      5          6           0        0.470078    0.512835   -0.000094
      6          6           0        1.784639   -0.057598   -0.000079
      7          6           0        0.244954   -1.798632    0.000227
      8          7           0        1.613945   -1.407347    0.000106
      9          8           0        0.133345    2.954798   -0.000398
     10          8           0       -0.133345   -2.954798    0.000394
     11          1           0        2.408134   -2.051950    0.000150
     12          1           0       -2.408134    2.051950   -0.000145
     13          6           0        4.281009   -0.193298   -0.000184
     14          6           0        5.527557    0.469956   -0.000332
     15          6           0        5.617928    1.866643   -0.000520
     16          1           0        6.581645    2.365641   -0.000633
     17          6           0        4.434358    2.608329   -0.000559
     18          1           0        4.482722    3.691787   -0.000703
     19          6           0        3.186902    1.980183   -0.000415
     20          1           0        2.287243    2.587123   -0.000451
     21          6           0        3.075263    0.572073   -0.000225
     22          7           0        4.354736   -1.571755   -0.000009
     23          6           0       -5.527557   -0.469956    0.000335
     24          6           0       -4.281009    0.193298    0.000184
     25          6           0       -3.075263   -0.572073    0.000225
     26          6           0       -3.186902   -1.980183    0.000419
     27          1           0       -2.287243   -2.587123    0.000455
     28          6           0       -4.434358   -2.608329    0.000566
     29          1           0       -4.482722   -3.691787    0.000713
     30          6           0       -5.617928   -1.866643    0.000527
     31          1           0       -6.581645   -2.365641    0.000642
     32          7           0       -4.354736    1.571755    0.000005
     33          6           0       -5.597440    1.966911    0.000017
     34          1           0       -5.888739    3.011134   -0.000106
     35          6           0        5.597440   -1.966911   -0.000018
     36          1           0        5.888739   -3.011134    0.000103
     37         16           0       -6.811697    0.717425    0.000238
     38         16           0        6.811697   -0.717425   -0.000238
 ---------------------------------------------------------------------
                    Distance matrix (angstroms):
                    1          2          3          4          5
     1  N    0.000000
     2  C    1.423812   0.000000
     3  C    1.360499   2.324184   0.000000
     4  C    2.235068   2.322404   1.432991   0.000000
     5  C    2.267885   1.471239   2.300215   1.391363   0.000000
     6  C    3.700870   2.750425   3.571136   2.300215   1.432991
     7  C    3.705915   3.630471   2.750425   1.471239   2.322404
     8  N    4.282730   3.705915   3.700870   2.267885   2.235068
     9  O    2.334015   1.216483   3.474540   3.519744   2.465070
    10  O    4.606570   4.754740   3.435302   2.465070   3.519744
    11  H    5.305078   4.676094   4.693563   3.263890   3.214682
    12  H    1.022863   2.177962   2.089542   3.214682   3.263890
    13  C    6.108400   4.944909   6.070835   4.761820   3.875799
    14  C    7.202760   5.923450   7.323814   6.077623   5.057661
    15  C    7.246443   5.863276   7.620410   6.536492   5.322890
    16  H    8.251426   6.850106   8.678812   7.616589   6.386246
    17  C    6.166387   4.748849   6.721767   5.813360   4.484040
    18  H    6.510608   5.092637   7.244801   6.496851   5.119282
    19  C    4.834902   3.436655   5.330343   4.425906   3.087757
    20  H    4.075677   2.652120   4.793612   4.148802   2.757673
    21  C    4.763019   3.539532   4.887058   3.707623   2.605858
    22  N    6.670847   5.702338   6.351907   4.939650   4.408637
    23  C    4.340579   5.749120   3.779914   5.057661   6.077623
    24  C    2.930383   4.343597   2.500056   3.875799   4.761820
    25  C    2.460397   3.692004   1.436035   2.605858   3.707623
    26  C    3.734910   4.788998   2.473640   3.087757   4.425906
    27  H    4.050817   4.837953   2.692055   2.757673   4.148802
    28  C    4.907177   6.080494   3.758747   4.484040   5.813360
    29  H    5.850731   6.935660   4.619258   5.119282   6.496851
    30  C    5.172126   6.504083   4.289150   5.322890   6.536492
    31  H    6.238067   7.582534   5.374324   6.386246   7.616589
    32  N    2.745718   4.116040   2.982963   4.408637   4.939650
    33  C    4.022604   5.355131   4.264144   5.695523   6.239320
    34  H    4.565742   5.772562   5.056383   6.463764   6.831987
    35  C    7.961764   6.950747   7.654654   6.239320   5.695523
    36  H    8.707080   7.794616   8.264251   6.831987   6.463764
    37  S    5.243340   6.655158   5.070176   6.459851   7.284649
    38  S    8.689425   7.491787   8.631202   7.284649   6.459851
                    6          7          8          9         10
     6  C    0.000000
     7  C    2.324184   0.000000
     8  N    1.360499   1.423812   0.000000
     9  O    3.435302   4.754740   4.606570   0.000000
    10  O    3.474540   1.216483   2.334015   5.915611   0.000000
    11  H    2.089542   2.177962   1.022863   5.499290   2.697082
    12  H    4.693563   4.676094   5.305078   2.697082   5.499290
    13  C    2.500056   4.343597   2.930383   5.207075   5.206957
    14  C    3.779914   5.749120   4.340579   5.939020   6.616249
    15  C    4.289150   6.504083   5.172126   5.591487   7.504894
    16  H    5.374324   7.582534   6.238067   6.475159   8.567273
    17  C    3.758747   6.080494   4.907177   4.314945   7.198076
    18  H    4.619258   6.935660   5.850731   4.411375   8.092291
    19  C    2.473640   4.788998   3.734910   3.205321   5.947947
    20  H    2.692055   4.837953   4.050817   2.185054   6.047490
    21  C    1.436035   3.692004   2.460397   3.785797   4.768017
    22  N    2.982963   4.116040   2.745718   6.189493   4.696347
    23  C    7.323814   5.923450   7.202760   6.616249   5.939020
    24  C    6.070835   4.944909   6.108400   5.206957   5.207075
    25  C    4.887058   3.539532   4.763019   4.768017   3.785797
    26  C    5.330343   3.436655   4.834902   5.947947   3.205321
    27  H    4.793612   2.652120   4.075677   6.047490   2.185054
    28  C    6.721767   4.748849   6.166387   7.198076   4.314945
    29  H    7.244801   5.092637   6.510608   8.092291   4.411375
    30  C    7.620410   5.863276   7.246443   7.504894   5.591487
    31  H    8.678812   6.850106   8.251426   8.567273   6.475159
    32  N    6.351907   5.702338   6.670847   4.696347   6.189493
    33  C    7.654654   6.950747   7.961764   5.815309   7.353880
    34  H    8.264251   7.794616   8.707080   6.022348   8.289566
    35  C    4.264144   5.355131   4.022604   7.353880   5.815309
    36  H    5.056383   5.772562   4.565742   8.289566   6.022348
    37  S    8.631202   7.491787   8.689425   7.296537   7.621391
    38  S    5.070176   6.655158   5.243340   7.621391   7.296537
                   11         12         13         14         15
    11  H    0.000000
    12  H    6.327593   0.000000
    13  C    2.638607   7.055903   0.000000
    14  C    4.011335   8.091841   1.412016   0.000000
    15  C    5.065387   8.028201   2.455750   1.399608   0.000000
    16  H    6.077278   8.995250   3.441089   2.169037   1.085242
    17  C    5.081711   6.865075   2.805821   2.401608   1.396759
    18  H    6.106917   7.083288   3.890318   3.387016   2.149382
    19  C    4.106650   5.595496   2.433329   2.785579   2.433676
    20  H    4.640648   4.725778   3.421380   3.870663   3.407720
    21  C    2.707500   5.679584   1.428151   2.454419   2.853254
    22  N    2.004956   7.672526   1.380427   2.354590   3.663091
    23  C    8.091841   4.011335   9.812467  11.094998  11.387780
    24  C    7.055903   2.638607   8.570741   9.812467  10.039374
    25  C    5.679584   2.707500   7.366017   8.665699   9.028782
    26  C    5.595496   4.106650   7.678714   9.052347   9.608491
    27  H    4.725778   4.640648   6.990875   8.391474   9.073465
    28  C    6.865075   5.081711   9.043782  10.426677  11.003355
    29  H    7.083288   6.106917   9.436228  10.840931  11.529062
    30  C    8.028201   5.065387  10.039374  11.387780  11.839843
    31  H    8.995250   6.077278  11.077740  12.436775  12.912854
    32  N    7.672526   2.004956   8.814278   9.943524   9.977023
    33  C    8.957704   3.190440  10.111887  11.225259  11.215816
    34  H    9.719718   3.610352  10.662653  11.695700  11.563444
    35  C    3.190440   8.957704   2.208777   2.437869   3.833609
    36  H    3.610352   9.719718   3.244225   3.499777   4.885289
    37  S    9.626771   4.601339  11.130029  12.341735  12.482639
    38  S    4.601339   9.626771   2.584394   1.748968   2.846488
                   16         17         18         19         20
    16  H    0.000000
    17  C    2.160958   0.000000
    18  H    2.482769   1.084537   0.000000
    19  C    3.416556   1.396680   2.146797   0.000000
    20  H    4.300110   2.147220   2.457725   1.085248   0.000000
    21  C    3.938477   2.448158   3.422507   1.412529   2.163655
    22  N    4.523518   4.180842   5.265098   3.738997   4.644437
    23  C   12.436775  10.426677  10.840931   9.052347   8.391474
    24  C   11.077740   9.043782   9.436228   7.678714   6.990875
    25  C   10.093861   8.155327   8.677767   6.762302   6.223905
    26  C   10.691618   8.895957   9.539097   7.503991   7.129274
    27  H   10.158103   8.495448   9.233479   7.129274   6.906428
    28  C   12.086881  10.289200  10.918140   8.895957   8.495448
    29  H   12.613986  10.918140  11.614489   9.539097   9.233479
    30  C   12.912854  11.003355  11.529062   9.608491   9.073465
    31  H   13.987753  12.086881  12.613986  10.691618  10.158103
    32  N   10.965158   8.850009   9.088190   7.552689   6.719141
    33  C   12.185610  10.052283  10.226674   8.784352   7.909038
    34  H   12.487079  10.330953  10.393772   9.134009   8.186969
    35  C    4.442934   4.720761   5.767448   4.624959   5.629976
    36  H    5.421239   5.804618   6.848798   5.675665   6.656670
    37  S   13.494378  11.403915  11.679500  10.078023   9.289052
    38  S    3.091637   4.088078   4.986509   4.518432   5.602742
                   21         22         23         24         25
    21  C    0.000000
    22  N    2.496608   0.000000
    23  C    8.665699   9.943524   0.000000
    24  C    7.366017   8.814278   1.412016   0.000000
    25  C    6.256040   7.496949   2.454419   1.428151   0.000000
    26  C    6.762302   7.552689   2.785579   2.433329   1.412529
    27  H    6.223905   6.719141   3.870663   3.421380   2.163655
    28  C    8.155327   8.850009   2.401608   2.805821   2.448158
    29  H    8.677767   9.088190   3.387016   3.890318   3.422507
    30  C    9.028782   9.977023   1.399608   2.455750   2.853254
    31  H   10.093861  10.965158   2.169037   3.441089   3.938477
    32  N    7.496949   9.259404   2.354590   1.380427   2.496608
    33  C    8.784153  10.562574   2.437869   2.208777   3.578801
    34  H    9.289906  11.221927   3.499777   3.244225   4.555768
    35  C    3.578801   1.304017  11.225259  10.111887   8.784153
    36  H    4.555768   2.103563  11.695700  10.662653   9.289906
    37  S    9.888028  11.398665   1.748968   2.584394   3.952688
    38  S    3.952688   2.601257  12.341735  11.130029   9.888028
                   26         27         28         29         30
    26  C    0.000000
    27  H    1.085248   0.000000
    28  C    1.396680   2.147220   0.000000
    29  H    2.146797   2.457725   1.084537   0.000000
    30  C    2.433676   3.407720   1.396759   2.149382   0.000000
    31  H    3.416556   4.300110   2.160958   2.482769   1.085242
    32  N    3.738997   4.644437   4.180842   5.265098   3.663091
    33  C    4.624959   5.629976   4.720761   5.767448   3.833609
    34  H    5.675665   6.656670   5.804618   6.848798   4.885289
    35  C    8.784352   7.909038  10.052283  10.226674  11.215816
    36  H    9.134009   8.186969  10.330953  10.393772  11.563444
    37  S    4.518432   5.602742   4.088078   4.986509   2.846488
    38  S   10.078023   9.289052  11.403915  11.679500  12.482639
                   31         32         33         34         35
    31  H    0.000000
    32  N    4.523518   0.000000
    33  C    4.442934   1.304017   0.000000
    34  H    5.421239   2.103563   1.084093   0.000000
    35  C   12.185610  10.562574  11.865930  12.518516   0.000000
    36  H   12.487079  11.221927  12.518516  13.227876   1.084093
    37  S    3.091637   2.601257   1.742307   2.472439  12.696155
    38  S   13.494378  11.398665  12.696155  13.236436   1.742307
                   36         37         38
    36  H    0.000000
    37  S   13.236436   0.000000
    38  S    2.472439  13.698747   0.000000
 Stoichiometry    C20H10N4O2S2(1+,2)
 Framework group  C1[X(C20H10N4O2S2)]
 Deg. of freedom   108
 Full point group                 C1      NOp   1
 Largest Abelian subgroup         C1      NOp   1
 Largest concise Abelian subgroup C1      NOp   1
                         Standard orientation:                         
 ---------------------------------------------------------------------
 Center     Atomic      Atomic             Coordinates (Angstroms)
 Number     Number       Type             X           Y           Z
 ---------------------------------------------------------------------
      1          7           0       -1.613945    1.407347   -0.000106
      2          6           0       -0.244954    1.798632   -0.000233
      3          6           0       -1.784639    0.057598    0.000077
      4          6           0       -0.470078   -0.512835    0.000088
      5          6           0        0.470078    0.512835   -0.000094
      6          6           0        1.784639   -0.057598   -0.000079
      7          6           0        0.244954   -1.798632    0.000227
      8          7           0        1.613945   -1.407347    0.000106
      9          8           0        0.133345    2.954798   -0.000398
     10          8           0       -0.133345   -2.954798    0.000394
     11          1           0        2.408134   -2.051950    0.000150
     12          1           0       -2.408134    2.051950   -0.000145
     13          6           0        4.281009   -0.193298   -0.000184
     14          6           0        5.527557    0.469956   -0.000332
     15          6           0        5.617928    1.866643   -0.000520
     16          1           0        6.581645    2.365641   -0.000633
     17          6           0        4.434358    2.608329   -0.000559
     18          1           0        4.482722    3.691787   -0.000703
     19          6           0        3.186902    1.980183   -0.000415
     20          1           0        2.287243    2.587123   -0.000451
     21          6           0        3.075263    0.572073   -0.000225
     22          7           0        4.354736   -1.571755   -0.000009
     23          6           0       -5.527557   -0.469956    0.000335
     24          6           0       -4.281009    0.193298    0.000184
     25          6           0       -3.075263   -0.572073    0.000225
     26          6           0       -3.186902   -1.980183    0.000419
     27          1           0       -2.287243   -2.587123    0.000455
     28          6           0       -4.434358   -2.608329    0.000566
     29          1           0       -4.482722   -3.691787    0.000713
     30          6           0       -5.617928   -1.866643    0.000527
     31          1           0       -6.581645   -2.365641    0.000642
     32          7           0       -4.354736    1.571755    0.000005
     33          6           0       -5.597440    1.966911    0.000017
     34          1           0       -5.888739    3.011134   -0.000106
     35          6           0        5.597440   -1.966911   -0.000018
     36          1           0        5.888739   -3.011134    0.000103
     37         16           0       -6.811697    0.717425    0.000238
     38         16           0        6.811697   -0.717425   -0.000238
 ---------------------------------------------------------------------
 Rotational constants (GHZ):      0.4823803      0.0673833      0.0591243
 Standard basis: 6-31+G(d,p) (6D, 7F)
 There are   590 symmetry adapted basis functions of A   symmetry.
 Integral buffers will be    262144 words long.
 Raffenetti 2 integral format.
 Two-electron integral symmetry is turned on.
   590 basis functions,  1014 primitive gaussians,   590 cartesian basis functions
   103 alpha electrons      102 beta electrons
       nuclear repulsion energy      2611.4372384973 Hartrees.
 NAtoms=   38 NActive=   38 NUniq=   38 SFac= 1.00D+00 NAtFMM=   50 NAOKFM=F Big=F
 One-electron integrals computed using PRISM.
 NBasis=   590 RedAO= T  NBF=   590
 NBsUse=   580 1.00D-06 NBFU=   580
 Harris functional with IExCor=  402 diagonalized for initial guess.
 ExpMin= 4.05D-02 ExpMax= 2.19D+04 ExpMxC= 3.30D+03 IAcc=2 IRadAn=         0 AccDes= 0.00D+00
 HarFok:  IExCor=  402 AccDes= 0.00D+00 IRadAn=         0 IDoV= 1
 ScaDFX=  1.000000  1.000000  1.000000  1.000000
 FoFCou: FMM=F IPFlag=           0 FMFlag=      100000 FMFlg1=           0
         NFxFlg=           0 DoJE=T BraDBF=F KetDBF=T FulRan=T
         Omega=  0.000000  0.000000  1.000000  0.000000  0.000000 ICntrl=     500 IOpCl=  0
         NMat0=    1 NMatS0=    1 NMatT0=    0 NMatD0=    1 NMtDS0=    0 NMtDT0=    0
         I1Cent=           4 NGrid=           0.
 Petite list used in FoFCou.
 Initial guess orbital symmetries:
 Alpha Orbitals:
       Occupied  (A) (A) (A) (A) (A) (A) (A) (A) (A) (A) (A) (A)
                 (A) (A) (A) (A) (A) (A) (A) (A) (A) (A) (A) (A)
                 (A) (A) (A) (A) (A) (A) (A) (A) (A) (A) (A) (A)
                 (A) (A) (A) (A) (A) (A) (A) (A) (A) (A) (A) (A)
                 (A) (A) (A) (A) (A) (A) (A) (A) (A) (A) (A) (A)
                 (A) (A) (A) (A) (A) (A) (A) (A) (A) (A) (A) (A)
                 (A) (A) (A) (A) (A) (A) (A) (A) (A) (A) (A) (A)
                 (A) (A) (A) (A) (A) (A) (A) (A) (A) (A) (A) (A)
                 (A) (A) (A) (A) (A) (A) (A)
       Virtual   (A) (A) (A) (A) (A) (A) (A) (A) (A) (A) (A) (A)
                 (A) (A) (A) (A) (A) (A) (A) (A) (A) (A) (A) (A)
                 (A) (A) (A) (A) (A) (A) (A) (A) (A) (A) (A) (A)
                 (A) (A) (A) (A) (A) (A) (A) (A) (A) (A) (A) (A)
                 (A) (A) (A) (A) (A) (A) (A) (A) (A) (A) (A) (A)
                 (A) (A) (A) (A) (A) (A) (A) (A) (A) (A) (A) (A)
                 (A) (A) (A) (A) (A) (A) (A) (A) (A) (A) (A) (A)
                 (A) (A) (A) (A) (A) (A) (A) (A) (A) (A) (A) (A)
                 (A) (A) (A) (A) (A) (A) (A) (A) (A) (A) (A) (A)
                 (A) (A) (A) (A) (A) (A) (A) (A) (A) (A) (A) (A)
                 (A) (A) (A) (A) (A) (A) (A) (A) (A) (A) (A) (A)
                 (A) (A) (A) (A) (A) (A) (A) (A) (A) (A) (A) (A)
                 (A) (A) (A) (A) (A) (A) (A) (A) (A) (A) (A) (A)
                 (A) (A) (A) (A) (A) (A) (A) (A) (A) (A) (A) (A)
                 (A) (A) (A) (A) (A) (A) (A) (A) (A) (A) (A) (A)
                 (A) (A) (A) (A) (A) (A) (A) (A) (A) (A) (A) (A)
                 (A) (A) (A) (A) (A) (A) (A) (A) (A) (A) (A) (A)
                 (A) (A) (A) (A) (A) (A) (A) (A) (A) (A) (A) (A)
                 (A) (A) (A) (A) (A) (A) (A) (A) (A) (A) (A) (A)
                 (A) (A) (A) (A) (A) (A) (A) (A) (A) (A) (A) (A)
                 (A) (A) (A) (A) (A) (A) (A) (A) (A) (A) (A) (A)
                 (A) (A) (A) (A) (A) (A) (A) (A) (A) (A) (A) (A)
                 (A) (A) (A) (A) (A) (A) (A) (A) (A) (A) (A) (A)
                 (A) (A) (A) (A) (A) (A) (A) (A) (A) (A) (A) (A)
                 (A) (A) (A) (A) (A) (A) (A) (A) (A) (A) (A) (A)
                 (A) (A) (A) (A) (A) (A) (A) (A) (A) (A) (A) (A)
                 (A) (A) (A) (A) (A) (A) (A) (A) (A) (A) (A) (A)
                 (A) (A) (A) (A) (A) (A) (A) (A) (A) (A) (A) (A)
                 (A) (A) (A) (A) (A) (A) (A) (A) (A) (A) (A) (A)
                 (A) (A) (A) (A) (A) (A) (A) (A) (A) (A) (A) (A)
                 (A) (A) (A) (A) (A) (A) (A) (A) (A) (A) (A) (A)
                 (A) (A) (A) (A) (A) (A) (A) (A) (A) (A) (A) (A)
                 (A) (A) (A) (A) (A) (A) (A) (A) (A) (A) (A) (A)
                 (A) (A) (A) (A) (A) (A) (A) (A) (A) (A) (A) (A)
                 (A) (A) (A) (A) (A) (A) (A) (A) (A) (A) (A) (A)
                 (A) (A) (A) (A) (A) (A) (A) (A) (A) (A) (A) (A)
                 (A) (A) (A) (A) (A) (A) (A) (A) (A) (A) (A) (A)
                 (A) (A) (A) (A) (A) (A) (A) (A) (A) (A) (A) (A)
                 (A) (A) (A) (A) (A) (A) (A) (A) (A) (A) (A) (A)
                 (A) (A) (A) (A) (A) (A) (A) (A) (A)
 Beta  Orbitals:
       Occupied  (A) (A) (A) (A) (A) (A) (A) (A) (A) (A) (A) (A)
                 (A) (A) (A) (A) (A) (A) (A) (A) (A) (A) (A) (A)
                 (A) (A) (A) (A) (A) (A) (A) (A) (A) (A) (A) (A)
                 (A) (A) (A) (A) (A) (A) (A) (A) (A) (A) (A) (A)
                 (A) (A) (A) (A) (A) (A) (A) (A) (A) (A) (A) (A)
                 (A) (A) (A) (A) (A) (A) (A) (A) (A) (A) (A) (A)
                 (A) (A) (A) (A) (A) (A) (A) (A) (A) (A) (A) (A)
                 (A) (A) (A) (A) (A) (A) (A) (A) (A) (A) (A) (A)
                 (A) (A) (A) (A) (A) (A)
       Virtual   (A) (A) (A) (A) (A) (A) (A) (A) (A) (A) (A) (A)
                 (A) (A) (A) (A) (A) (A) (A) (A) (A) (A) (A) (A)
                 (A) (A) (A) (A) (A) (A) (A) (A) (A) (A) (A) (A)
                 (A) (A) (A) (A) (A) (A) (A) (A) (A) (A) (A) (A)
                 (A) (A) (A) (A) (A) (A) (A) (A) (A) (A) (A) (A)
                 (A) (A) (A) (A) (A) (A) (A) (A) (A) (A) (A) (A)
                 (A) (A) (A) (A) (A) (A) (A) (A) (A) (A) (A) (A)
                 (A) (A) (A) (A) (A) (A) (A) (A) (A) (A) (A) (A)
                 (A) (A) (A) (A) (A) (A) (A) (A) (A) (A) (A) (A)
                 (A) (A) (A) (A) (A) (A) (A) (A) (A) (A) (A) (A)
                 (A) (A) (A) (A) (A) (A) (A) (A) (A) (A) (A) (A)
                 (A) (A) (A) (A) (A) (A) (A) (A) (A) (A) (A) (A)
                 (A) (A) (A) (A) (A) (A) (A) (A) (A) (A) (A) (A)
                 (A) (A) (A) (A) (A) (A) (A) (A) (A) (A) (A) (A)
                 (A) (A) (A) (A) (A) (A) (A) (A) (A) (A) (A) (A)
                 (A) (A) (A) (A) (A) (A) (A) (A) (A) (A) (A) (A)
                 (A) (A) (A) (A) (A) (A) (A) (A) (A) (A) (A) (A)
                 (A) (A) (A) (A) (A) (A) (A) (A) (A) (A) (A) (A)
                 (A) (A) (A) (A) (A) (A) (A) (A) (A) (A) (A) (A)
                 (A) (A) (A) (A) (A) (A) (A) (A) (A) (A) (A) (A)
                 (A) (A) (A) (A) (A) (A) (A) (A) (A) (A) (A) (A)
                 (A) (A) (A) (A) (A) (A) (A) (A) (A) (A) (A) (A)
                 (A) (A) (A) (A) (A) (A) (A) (A) (A) (A) (A) (A)
                 (A) (A) (A) (A) (A) (A) (A) (A) (A) (A) (A) (A)
                 (A) (A) (A) (A) (A) (A) (A) (A) (A) (A) (A) (A)
                 (A) (A) (A) (A) (A) (A) (A) (A) (A) (A) (A) (A)
                 (A) (A) (A) (A) (A) (A) (A) (A) (A) (A) (A) (A)
                 (A) (A) (A) (A) (A) (A) (A) (A) (A) (A) (A) (A)
                 (A) (A) (A) (A) (A) (A) (A) (A) (A) (A) (A) (A)
                 (A) (A) (A) (A) (A) (A) (A) (A) (A) (A) (A) (A)
                 (A) (A) (A) (A) (A) (A) (A) (A) (A) (A) (A) (A)
                 (A) (A) (A) (A) (A) (A) (A) (A) (A) (A) (A) (A)
                 (A) (A) (A) (A) (A) (A) (A) (A) (A) (A) (A) (A)
                 (A) (A) (A) (A) (A) (A) (A) (A) (A) (A) (A) (A)
                 (A) (A) (A) (A) (A) (A) (A) (A) (A) (A) (A) (A)
                 (A) (A) (A) (A) (A) (A) (A) (A) (A) (A) (A) (A)
                 (A) (A) (A) (A) (A) (A) (A) (A) (A) (A) (A) (A)
                 (A) (A) (A) (A) (A) (A) (A) (A) (A) (A) (A) (A)
                 (A) (A) (A) (A) (A) (A) (A) (A) (A) (A) (A) (A)
                 (A) (A) (A) (A) (A) (A) (A) (A) (A) (A)
 The electronic state of the initial guess is 2-A.
 Initial guess <Sx>= 0.0000 <Sy>= 0.0000 <Sz>= 0.5000 <S**2>= 0.7500 S= 0.5000
 Requested convergence on RMS density matrix=1.00D-08 within 128 cycles.
 Requested convergence on MAX density matrix=1.00D-06.
 Requested convergence on             energy=1.00D-06.
 No special actions if energy rises.
 Restarting incremental Fock formation.
 SCF Done:  E(UB3LYP) =  -1933.85060339     A.U. after   25 cycles
             Convg  =    0.1253D-08             -V/T =  2.0069
 <Sx>= 0.0000 <Sy>= 0.0000 <Sz>= 0.5000 <S**2>= 0.7579 S= 0.5039
 <L.S>= 0.000000000000E+00
 Annihilation of the first spin contaminant:
 S**2 before annihilation     0.7579,   after     0.7501

 **********************************************************************

            Population analysis using the SCF density.

 **********************************************************************

 Orbital symmetries:
 Alpha Orbitals:
       Occupied  (A) (A) (A) (A) (A) (A) (A) (A) (A) (A) (A) (A)
                 (A) (A) (A) (A) (A) (A) (A) (A) (A) (A) (A) (A)
                 (A) (A) (A) (A) (A) (A) (A) (A) (A) (A) (A) (A)
                 (A) (A) (A) (A) (A) (A) (A) (A) (A) (A) (A) (A)
                 (A) (A) (A) (A) (A) (A) (A) (A) (A) (A) (A) (A)
                 (A) (A) (A) (A) (A) (A) (A) (A) (A) (A) (A) (A)
                 (A) (A) (A) (A) (A) (A) (A) (A) (A) (A) (A) (A)
                 (A) (A) (A) (A) (A) (A) (A) (A) (A) (A) (A) (A)
                 (A) (A) (A) (A) (A) (A) (A)
       Virtual   (A) (A) (A) (A) (A) (A) (A) (A) (A) (A) (A) (A)
                 (A) (A) (A) (A) (A) (A) (A) (A) (A) (A) (A) (A)
                 (A) (A) (A) (A) (A) (A) (A) (A) (A) (A) (A) (A)
                 (A) (A) (A) (A) (A) (A) (A) (A) (A) (A) (A) (A)
                 (A) (A) (A) (A) (A) (A) (A) (A) (A) (A) (A) (A)
                 (A) (A) (A) (A) (A) (A) (A) (A) (A) (A) (A) (A)
                 (A) (A) (A) (A) (A) (A) (A) (A) (A) (A) (A) (A)
                 (A) (A) (A) (A) (A) (A) (A) (A) (A) (A) (A) (A)
                 (A) (A) (A) (A) (A) (A) (A) (A) (A) (A) (A) (A)
                 (A) (A) (A) (A) (A) (A) (A) (A) (A) (A) (A) (A)
                 (A) (A) (A) (A) (A) (A) (A) (A) (A) (A) (A) (A)
                 (A) (A) (A) (A) (A) (A) (A) (A) (A) (A) (A) (A)
                 (A) (A) (A) (A) (A) (A) (A) (A) (A) (A) (A) (A)
                 (A) (A) (A) (A) (A) (A) (A) (A) (A) (A) (A) (A)
                 (A) (A) (A) (A) (A) (A) (A) (A) (A) (A) (A) (A)
                 (A) (A) (A) (A) (A) (A) (A) (A) (A) (A) (A) (A)
                 (A) (A) (A) (A) (A) (A) (A) (A) (A) (A) (A) (A)
                 (A) (A) (A) (A) (A) (A) (A) (A) (A) (A) (A) (A)
                 (A) (A) (A) (A) (A) (A) (A) (A) (A) (A) (A) (A)
                 (A) (A) (A) (A) (A) (A) (A) (A) (A) (A) (A) (A)
                 (A) (A) (A) (A) (A) (A) (A) (A) (A) (A) (A) (A)
                 (A) (A) (A) (A) (A) (A) (A) (A) (A) (A) (A) (A)
                 (A) (A) (A) (A) (A) (A) (A) (A) (A) (A) (A) (A)
                 (A) (A) (A) (A) (A) (A) (A) (A) (A) (A) (A) (A)
                 (A) (A) (A) (A) (A) (A) (A) (A) (A) (A) (A) (A)
                 (A) (A) (A) (A) (A) (A) (A) (A) (A) (A) (A) (A)
                 (A) (A) (A) (A) (A) (A) (A) (A) (A) (A) (A) (A)
                 (A) (A) (A) (A) (A) (A) (A) (A) (A) (A) (A) (A)
                 (A) (A) (A) (A) (A) (A) (A) (A) (A) (A) (A) (A)
                 (A) (A) (A) (A) (A) (A) (A) (A) (A) (A) (A) (A)
                 (A) (A) (A) (A) (A) (A) (A) (A) (A) (A) (A) (A)
                 (A) (A) (A) (A) (A) (A) (A) (A) (A) (A) (A) (A)
                 (A) (A) (A) (A) (A) (A) (A) (A) (A) (A) (A) (A)
                 (A) (A) (A) (A) (A) (A) (A) (A) (A) (A) (A) (A)
                 (A) (A) (A) (A) (A) (A) (A) (A) (A) (A) (A) (A)
                 (A) (A) (A) (A) (A) (A) (A) (A) (A) (A) (A) (A)
                 (A) (A) (A) (A) (A) (A) (A) (A) (A) (A) (A) (A)
                 (A) (A) (A) (A) (A) (A) (A) (A) (A) (A) (A) (A)
                 (A) (A) (A) (A) (A) (A) (A) (A) (A) (A) (A) (A)
                 (A) (A) (A) (A) (A) (A) (A) (A) (A)
 Beta  Orbitals:
       Occupied  (A) (A) (A) (A) (A) (A) (A) (A) (A) (A) (A) (A)
                 (A) (A) (A) (A) (A) (A) (A) (A) (A) (A) (A) (A)
                 (A) (A) (A) (A) (A) (A) (A) (A) (A) (A) (A) (A)
                 (A) (A) (A) (A) (A) (A) (A) (A) (A) (A) (A) (A)
                 (A) (A) (A) (A) (A) (A) (A) (A) (A) (A) (A) (A)
                 (A) (A) (A) (A) (A) (A) (A) (A) (A) (A) (A) (A)
                 (A) (A) (A) (A) (A) (A) (A) (A) (A) (A) (A) (A)
                 (A) (A) (A) (A) (A) (A) (A) (A) (A) (A) (A) (A)
                 (A) (A) (A) (A) (A) (A)
       Virtual   (A) (A) (A) (A) (A) (A) (A) (A) (A) (A) (A) (A)
                 (A) (A) (A) (A) (A) (A) (A) (A) (A) (A) (A) (A)
                 (A) (A) (A) (A) (A) (A) (A) (A) (A) (A) (A) (A)
                 (A) (A) (A) (A) (A) (A) (A) (A) (A) (A) (A) (A)
                 (A) (A) (A) (A) (A) (A) (A) (A) (A) (A) (A) (A)
                 (A) (A) (A) (A) (A) (A) (A) (A) (A) (A) (A) (A)
                 (A) (A) (A) (A) (A) (A) (A) (A) (A) (A) (A) (A)
                 (A) (A) (A) (A) (A) (A) (A) (A) (A) (A) (A) (A)
                 (A) (A) (A) (A) (A) (A) (A) (A) (A) (A) (A) (A)
                 (A) (A) (A) (A) (A) (A) (A) (A) (A) (A) (A) (A)
                 (A) (A) (A) (A) (A) (A) (A) (A) (A) (A) (A) (A)
                 (A) (A) (A) (A) (A) (A) (A) (A) (A) (A) (A) (A)
                 (A) (A) (A) (A) (A) (A) (A) (A) (A) (A) (A) (A)
                 (A) (A) (A) (A) (A) (A) (A) (A) (A) (A) (A) (A)
                 (A) (A) (A) (A) (A) (A) (A) (A) (A) (A) (A) (A)
                 (A) (A) (A) (A) (A) (A) (A) (A) (A) (A) (A) (A)
                 (A) (A) (A) (A) (A) (A) (A) (A) (A) (A) (A) (A)
                 (A) (A) (A) (A) (A) (A) (A) (A) (A) (A) (A) (A)
                 (A) (A) (A) (A) (A) (A) (A) (A) (A) (A) (A) (A)
                 (A) (A) (A) (A) (A) (A) (A) (A) (A) (A) (A) (A)
                 (A) (A) (A) (A) (A) (A) (A) (A) (A) (A) (A) (A)
                 (A) (A) (A) (A) (A) (A) (A) (A) (A) (A) (A) (A)
                 (A) (A) (A) (A) (A) (A) (A) (A) (A) (A) (A) (A)
                 (A) (A) (A) (A) (A) (A) (A) (A) (A) (A) (A) (A)
                 (A) (A) (A) (A) (A) (A) (A) (A) (A) (A) (A) (A)
                 (A) (A) (A) (A) (A) (A) (A) (A) (A) (A) (A) (A)
                 (A) (A) (A) (A) (A) (A) (A) (A) (A) (A) (A) (A)
                 (A) (A) (A) (A) (A) (A) (A) (A) (A) (A) (A) (A)
                 (A) (A) (A) (A) (A) (A) (A) (A) (A) (A) (A) (A)
                 (A) (A) (A) (A) (A) (A) (A) (A) (A) (A) (A) (A)
                 (A) (A) (A) (A) (A) (A) (A) (A) (A) (A) (A) (A)
                 (A) (A) (A) (A) (A) (A) (A) (A) (A) (A) (A) (A)
                 (A) (A) (A) (A) (A) (A) (A) (A) (A) (A) (A) (A)
                 (A) (A) (A) (A) (A) (A) (A) (A) (A) (A) (A) (A)
                 (A) (A) (A) (A) (A) (A) (A) (A) (A) (A) (A) (A)
                 (A) (A) (A) (A) (A) (A) (A) (A) (A) (A) (A) (A)
                 (A) (A) (A) (A) (A) (A) (A) (A) (A) (A) (A) (A)
                 (A) (A) (A) (A) (A) (A) (A) (A) (A) (A) (A) (A)
                 (A) (A) (A) (A) (A) (A) (A) (A) (A) (A) (A) (A)
                 (A) (A) (A) (A) (A) (A) (A) (A) (A) (A)
 The electronic state is 2-A.
 Alpha  occ. eigenvalues --  -89.04957 -89.04957 -19.28560 -19.28560 -14.52218
 Alpha  occ. eigenvalues --  -14.52218 -14.48147 -14.48147 -10.44610 -10.44610
 Alpha  occ. eigenvalues --  -10.42058 -10.42058 -10.39131 -10.39131 -10.37170
 Alpha  occ. eigenvalues --  -10.37169 -10.36232 -10.36232 -10.35623 -10.35623
 Alpha  occ. eigenvalues --  -10.35427 -10.35369 -10.34612 -10.34612 -10.33598
 Alpha  occ. eigenvalues --  -10.33598 -10.32695 -10.32695  -8.10882  -8.10882
 Alpha  occ. eigenvalues --   -6.07292  -6.07292  -6.06932  -6.06932  -6.06597
 Alpha  occ. eigenvalues --   -6.06596  -1.20011  -1.19564  -1.12912  -1.11667
 Alpha  occ. eigenvalues --   -1.10496  -1.10164  -0.99385  -0.99357  -0.95884
 Alpha  occ. eigenvalues --   -0.94934  -0.94705  -0.90708  -0.89885  -0.87850
 Alpha  occ. eigenvalues --   -0.87498  -0.85155  -0.82652  -0.81547  -0.77108
 Alpha  occ. eigenvalues --   -0.76165  -0.75197  -0.73344  -0.72388  -0.72188
 Alpha  occ. eigenvalues --   -0.70606  -0.68281  -0.66007  -0.64604  -0.63857
 Alpha  occ. eigenvalues --   -0.62350  -0.62191  -0.61610  -0.61446  -0.61084
 Alpha  occ. eigenvalues --   -0.60669  -0.60407  -0.58574  -0.57658  -0.57628
 Alpha  occ. eigenvalues --   -0.57294  -0.55927  -0.55832  -0.55458  -0.54486
 Alpha  occ. eigenvalues --   -0.54140  -0.52981  -0.52606  -0.51417  -0.50358
 Alpha  occ. eigenvalues --   -0.50272  -0.50222  -0.48206  -0.47972  -0.47676
 Alpha  occ. eigenvalues --   -0.47485  -0.43907  -0.43378  -0.42826  -0.42384
 Alpha  occ. eigenvalues --   -0.41712  -0.41459  -0.40494  -0.38619  -0.38044
 Alpha  occ. eigenvalues --   -0.37904  -0.37863  -0.33323
 Alpha virt. eigenvalues --   -0.24446  -0.18955  -0.16483  -0.15543  -0.13757
 Alpha virt. eigenvalues --   -0.11868  -0.11795  -0.11771  -0.10823  -0.10479
 Alpha virt. eigenvalues --   -0.09860  -0.08678  -0.07528  -0.07296  -0.06754
 Alpha virt. eigenvalues --   -0.06356  -0.06135  -0.06011  -0.05896  -0.05166
 Alpha virt. eigenvalues --   -0.05146  -0.04848  -0.04674  -0.03573  -0.03476
 Alpha virt. eigenvalues --   -0.03189  -0.03181  -0.02726  -0.02254  -0.01902
 Alpha virt. eigenvalues --   -0.01449  -0.01264  -0.00997  -0.00717  -0.00474
 Alpha virt. eigenvalues --   -0.00281   0.00378   0.00479   0.00688   0.00975
 Alpha virt. eigenvalues --    0.01010   0.01754   0.02271   0.02448   0.02525
 Alpha virt. eigenvalues --    0.03045   0.03070   0.03131   0.03561   0.04216
 Alpha virt. eigenvalues --    0.04307   0.04687   0.04738   0.04812   0.05197
 Alpha virt. eigenvalues --    0.05585   0.05750   0.05779   0.06112   0.06463
 Alpha virt. eigenvalues --    0.07205   0.07424   0.07673   0.07771   0.07981
 Alpha virt. eigenvalues --    0.08012   0.08316   0.08607   0.08618   0.08739
 Alpha virt. eigenvalues --    0.09423   0.09460   0.10134   0.10340   0.10465
 Alpha virt. eigenvalues --    0.10586   0.10892   0.11354   0.11910   0.12348
 Alpha virt. eigenvalues --    0.12364   0.12394   0.12616   0.12711   0.12743
 Alpha virt. eigenvalues --    0.12749   0.12897   0.13288   0.13788   0.13893
 Alpha virt. eigenvalues --    0.14246   0.14774   0.14960   0.15087   0.16060
 Alpha virt. eigenvalues --    0.16299   0.16579   0.16791   0.16834   0.17355
 Alpha virt. eigenvalues --    0.17504   0.17748   0.17998   0.18297   0.18441
 Alpha virt. eigenvalues --    0.18949   0.18971   0.19333   0.19478   0.19511
 Alpha virt. eigenvalues --    0.19774   0.20022   0.20231   0.20404   0.20590
 Alpha virt. eigenvalues --    0.21394   0.21516   0.22139   0.22417   0.22776
 Alpha virt. eigenvalues --    0.23106   0.23107   0.23277   0.23664   0.24583
 Alpha virt. eigenvalues --    0.24667   0.25023   0.25343   0.26232   0.27550
 Alpha virt. eigenvalues --    0.27673   0.27691   0.28992   0.30020   0.30283
 Alpha virt. eigenvalues --    0.31101   0.31305   0.32307   0.32881   0.33361
 Alpha virt. eigenvalues --    0.34749   0.34891   0.36054   0.36425   0.37371
 Alpha virt. eigenvalues --    0.38327   0.39673   0.39726   0.40350   0.40554
 Alpha virt. eigenvalues --    0.41194   0.41470   0.42382   0.42983   0.45230
 Alpha virt. eigenvalues --    0.45410   0.47183   0.47877   0.48101   0.49189
 Alpha virt. eigenvalues --    0.49669   0.50698   0.50970   0.52130   0.53036
 Alpha virt. eigenvalues --    0.54347   0.54367   0.54801   0.56158   0.56285
 Alpha virt. eigenvalues --    0.56315   0.57110   0.57120   0.57133   0.57539
 Alpha virt. eigenvalues --    0.57932   0.58433   0.59900   0.60503   0.60785
 Alpha virt. eigenvalues --    0.61116   0.62161   0.62380   0.62537   0.63054
 Alpha virt. eigenvalues --    0.64445   0.65048   0.66227   0.66906   0.67032
 Alpha virt. eigenvalues --    0.67445   0.67533   0.68434   0.68677   0.69156
 Alpha virt. eigenvalues --    0.69289   0.69625   0.70736   0.71189   0.71242
 Alpha virt. eigenvalues --    0.72095   0.74358   0.75030   0.77166   0.77274
 Alpha virt. eigenvalues --    0.78363   0.78437   0.78492   0.78611   0.80132
 Alpha virt. eigenvalues --    0.80207   0.81598   0.83084   0.84329   0.84392
 Alpha virt. eigenvalues --    0.84693   0.85135   0.85869   0.86730   0.87372
 Alpha virt. eigenvalues --    0.87979   0.88244   0.89305   0.90197   0.90619
 Alpha virt. eigenvalues --    0.90854   0.92223   0.93001   0.93067   0.93531
 Alpha virt. eigenvalues --    0.95078   0.95876   0.97255   0.98259   0.99087
 Alpha virt. eigenvalues --    1.00427   1.01565   1.02062   1.02379   1.04574
 Alpha virt. eigenvalues --    1.05049   1.05804   1.06027   1.07164   1.08235
 Alpha virt. eigenvalues --    1.08789   1.09693   1.09917   1.10440   1.10877
 Alpha virt. eigenvalues --    1.11852   1.12463   1.13325   1.14119   1.14245
 Alpha virt. eigenvalues --    1.14828   1.15639   1.16621   1.17163   1.17176
 Alpha virt. eigenvalues --    1.17541   1.18131   1.18157   1.19596   1.20518
 Alpha virt. eigenvalues --    1.20671   1.20749   1.21793   1.22096   1.22840
 Alpha virt. eigenvalues --    1.23682   1.23830   1.24281   1.24372   1.25045
 Alpha virt. eigenvalues --    1.26233   1.26880   1.27128   1.27532   1.27555
 Alpha virt. eigenvalues --    1.28131   1.28898   1.30840   1.30840   1.31038
 Alpha virt. eigenvalues --    1.31095   1.33553   1.34893   1.35873   1.38812
 Alpha virt. eigenvalues --    1.40904   1.40949   1.41323   1.42568   1.43299
 Alpha virt. eigenvalues --    1.46110   1.46434   1.48959   1.51645   1.52514
 Alpha virt. eigenvalues --    1.54102   1.55063   1.55198   1.58213   1.58475
 Alpha virt. eigenvalues --    1.59076   1.61502   1.61908   1.62392   1.62766
 Alpha virt. eigenvalues --    1.64046   1.66756   1.67246   1.67801   1.68791
 Alpha virt. eigenvalues --    1.71206   1.72409   1.73660   1.75448   1.75558
 Alpha virt. eigenvalues --    1.77095   1.77603   1.78091   1.79167   1.79493
 Alpha virt. eigenvalues --    1.80141   1.81404   1.81429   1.81733   1.82059
 Alpha virt. eigenvalues --    1.82788   1.84361   1.84390   1.86148   1.88669
 Alpha virt. eigenvalues --    1.89073   1.90659   1.90801   1.91127   1.91304
 Alpha virt. eigenvalues --    1.92604   1.93161   1.93777   1.93934   1.95963
 Alpha virt. eigenvalues --    1.96252   1.97865   1.97999   2.00415   2.01109
 Alpha virt. eigenvalues --    2.02907   2.02996   2.05369   2.06726   2.07530
 Alpha virt. eigenvalues --    2.08112   2.10457   2.11575   2.11678   2.13319
 Alpha virt. eigenvalues --    2.14029   2.14980   2.17543   2.18998   2.20402
 Alpha virt. eigenvalues --    2.21097   2.21405   2.22271   2.24878   2.25667
 Alpha virt. eigenvalues --    2.26455   2.26686   2.27415   2.27578   2.29543
 Alpha virt. eigenvalues --    2.29838   2.30585   2.33132   2.34469   2.35413
 Alpha virt. eigenvalues --    2.36167   2.36349   2.36884   2.37411   2.38503
 Alpha virt. eigenvalues --    2.38946   2.41032   2.41757   2.42017   2.42824
 Alpha virt. eigenvalues --    2.43626   2.44677   2.44790   2.46794   2.46917
 Alpha virt. eigenvalues --    2.48604   2.49901   2.51335   2.51640   2.51751
 Alpha virt. eigenvalues --    2.51856   2.53415   2.53929   2.53972   2.56442
 Alpha virt. eigenvalues --    2.59183   2.59207   2.59777   2.62066   2.63051
 Alpha virt. eigenvalues --    2.64110   2.65868   2.66646   2.68374   2.71855
 Alpha virt. eigenvalues --    2.72399   2.73221   2.75503   2.77463   2.81741
 Alpha virt. eigenvalues --    2.82608   2.85547   2.87945   2.89676   2.90725
 Alpha virt. eigenvalues --    2.92531   2.93818   2.98413   2.99479   2.99962
 Alpha virt. eigenvalues --    3.03254   3.10479   3.10687   3.11926   3.15746
 Alpha virt. eigenvalues --    3.16647   3.18914   3.18955   3.19286   3.26592
 Alpha virt. eigenvalues --    3.28898   3.30595   3.32037   3.34568   3.37074
 Alpha virt. eigenvalues --    3.47035   3.48089   3.66139   3.66357   3.86683
 Alpha virt. eigenvalues --    3.87140   4.10383   4.12808   4.13711   4.17331
 Alpha virt. eigenvalues --    4.17595   4.20428   4.21023   4.21368   4.23660
 Alpha virt. eigenvalues --    4.23787   4.30004   4.30281   4.32390   4.34066
 Alpha virt. eigenvalues --    4.36197   4.40462   4.42937   4.46525   4.47758
 Alpha virt. eigenvalues --    4.48762   4.54994   4.63544   4.73179   4.74638
 Alpha virt. eigenvalues --    4.92914   5.01555
  Beta  occ. eigenvalues --  -89.04949 -89.04949 -19.28192 -19.28192 -14.52194
  Beta  occ. eigenvalues --  -14.52194 -14.48145 -14.48145 -10.44635 -10.44635
  Beta  occ. eigenvalues --  -10.41907 -10.41907 -10.39115 -10.39115 -10.37132
  Beta  occ. eigenvalues --  -10.37132 -10.36262 -10.36262 -10.35641 -10.35641
  Beta  occ. eigenvalues --  -10.35202 -10.35142 -10.34509 -10.34509 -10.33515
  Beta  occ. eigenvalues --  -10.33515 -10.32732 -10.32732  -8.10874  -8.10874
  Beta  occ. eigenvalues --   -6.07287  -6.07287  -6.06928  -6.06927  -6.06572
  Beta  occ. eigenvalues --   -6.06572  -1.19485  -1.19007  -1.12532  -1.11479
  Beta  occ. eigenvalues --   -1.10437  -1.10054  -0.99268  -0.99249  -0.95490
  Beta  occ. eigenvalues --   -0.94826  -0.94589  -0.90466  -0.89787  -0.87753
  Beta  occ. eigenvalues --   -0.87419  -0.84675  -0.82341  -0.81356  -0.76893
  Beta  occ. eigenvalues --   -0.76093  -0.75113  -0.73267  -0.72299  -0.72117
  Beta  occ. eigenvalues --   -0.70439  -0.68165  -0.65854  -0.64527  -0.63700
  Beta  occ. eigenvalues --   -0.62294  -0.62137  -0.61538  -0.61018  -0.60549
  Beta  occ. eigenvalues --   -0.60433  -0.60274  -0.58457  -0.57322  -0.57132
  Beta  occ. eigenvalues --   -0.57031  -0.55732  -0.55375  -0.55334  -0.54438
  Beta  occ. eigenvalues --   -0.54003  -0.52936  -0.52505  -0.50348  -0.50320
  Beta  occ. eigenvalues --   -0.50240  -0.49078  -0.48172  -0.47930  -0.47008
  Beta  occ. eigenvalues --   -0.46954  -0.43304  -0.43003  -0.42616  -0.42341
  Beta  occ. eigenvalues --   -0.41282  -0.40643  -0.40146  -0.37802  -0.37751
  Beta  occ. eigenvalues --   -0.37735  -0.37468
  Beta virt. eigenvalues --   -0.28317  -0.22916  -0.18177  -0.16228  -0.15254
  Beta virt. eigenvalues --   -0.13213  -0.11787  -0.11763  -0.11353  -0.10576
  Beta virt. eigenvalues --   -0.10034  -0.09818  -0.08669  -0.07500  -0.07279
  Beta virt. eigenvalues --   -0.06741  -0.06348  -0.06130  -0.05964  -0.05879
  Beta virt. eigenvalues --   -0.05143  -0.04823  -0.04565  -0.04412  -0.03533
  Beta virt. eigenvalues --   -0.03455  -0.03166  -0.02764  -0.02571  -0.01867
  Beta virt. eigenvalues --   -0.01613  -0.01421  -0.01250  -0.00849  -0.00691
  Beta virt. eigenvalues --   -0.00456  -0.00201   0.00498   0.00520   0.00741
  Beta virt. eigenvalues --    0.01073   0.01106   0.01812   0.02344   0.02497
  Beta virt. eigenvalues --    0.02549   0.03097   0.03152   0.03166   0.03650
  Beta virt. eigenvalues --    0.04371   0.04638   0.04873   0.04873   0.04900
  Beta virt. eigenvalues --    0.05215   0.05697   0.05822   0.05827   0.06151
  Beta virt. eigenvalues --    0.06510   0.07266   0.07458   0.07727   0.07800
  Beta virt. eigenvalues --    0.08013   0.08031   0.08379   0.08649   0.08654
  Beta virt. eigenvalues --    0.08855   0.09494   0.09534   0.10173   0.10391
  Beta virt. eigenvalues --    0.10518   0.10765   0.10917   0.11395   0.11970
  Beta virt. eigenvalues --    0.12368   0.12432   0.12435   0.12633   0.12769
  Beta virt. eigenvalues --    0.12780   0.12810   0.12948   0.13321   0.13840
  Beta virt. eigenvalues --    0.13931   0.14276   0.14870   0.15109   0.15144
  Beta virt. eigenvalues --    0.16127   0.16459   0.16619   0.16889   0.16902
  Beta virt. eigenvalues --    0.17386   0.17593   0.17770   0.18056   0.18339
  Beta virt. eigenvalues --    0.18474   0.18975   0.19054   0.19476   0.19554
  Beta virt. eigenvalues --    0.19562   0.19820   0.20066   0.20280   0.20455
  Beta virt. eigenvalues --    0.20638   0.21482   0.21562   0.22185   0.22477
  Beta virt. eigenvalues --    0.22973   0.23169   0.23326   0.23344   0.23699
  Beta virt. eigenvalues --    0.24672   0.24706   0.25087   0.25430   0.26294
  Beta virt. eigenvalues --    0.27620   0.27724   0.27768   0.29036   0.30129
  Beta virt. eigenvalues --    0.30363   0.31128   0.31348   0.32352   0.32938
  Beta virt. eigenvalues --    0.33420   0.34840   0.34955   0.36116   0.36479
  Beta virt. eigenvalues --    0.37479   0.38373   0.39719   0.39830   0.40400
  Beta virt. eigenvalues --    0.40602   0.41272   0.41525   0.42411   0.43025
  Beta virt. eigenvalues --    0.45328   0.45503   0.47274   0.47928   0.48165
  Beta virt. eigenvalues --    0.49249   0.49780   0.50789   0.51101   0.52224
  Beta virt. eigenvalues --    0.53247   0.54343   0.54359   0.54867   0.56198
  Beta virt. eigenvalues --    0.56450   0.56615   0.57140   0.57151   0.57504
  Beta virt. eigenvalues --    0.57994   0.58218   0.58479   0.59970   0.60715
  Beta virt. eigenvalues --    0.60885   0.61243   0.62197   0.62585   0.62927
  Beta virt. eigenvalues --    0.63126   0.64737   0.65199   0.66575   0.66950
  Beta virt. eigenvalues --    0.67074   0.67496   0.67616   0.69024   0.69101
  Beta virt. eigenvalues --    0.69195   0.69342   0.69669   0.70826   0.71219
  Beta virt. eigenvalues --    0.71478   0.72243   0.74397   0.75278   0.77200
  Beta virt. eigenvalues --    0.77294   0.78426   0.78478   0.78552   0.78644
  Beta virt. eigenvalues --    0.80168   0.80223   0.81666   0.83117   0.84345
  Beta virt. eigenvalues --    0.84427   0.84877   0.85188   0.85902   0.86773
  Beta virt. eigenvalues --    0.87498   0.88001   0.88263   0.89366   0.90252
  Beta virt. eigenvalues --    0.90660   0.90924   0.92269   0.93064   0.93098
  Beta virt. eigenvalues --    0.93576   0.95134   0.95927   0.97315   0.98330
  Beta virt. eigenvalues --    0.99202   1.00579   1.01651   1.02105   1.02420
  Beta virt. eigenvalues --    1.04650   1.05126   1.05904   1.06126   1.07664
  Beta virt. eigenvalues --    1.08305   1.09015   1.09752   1.10088   1.10920
  Beta virt. eigenvalues --    1.11163   1.11889   1.12544   1.13907   1.14371
  Beta virt. eigenvalues --    1.14866   1.14899   1.16275   1.16622   1.17323
  Beta virt. eigenvalues --    1.17650   1.17677   1.18323   1.18375   1.19783
  Beta virt. eigenvalues --    1.20620   1.20767   1.21016   1.21917   1.22161
  Beta virt. eigenvalues --    1.23112   1.23797   1.23951   1.24356   1.24599
  Beta virt. eigenvalues --    1.25464   1.26470   1.26976   1.27401   1.27648
  Beta virt. eigenvalues --    1.27736   1.28603   1.28974   1.30928   1.30960
  Beta virt. eigenvalues --    1.31179   1.31215   1.33727   1.34961   1.36045
  Beta virt. eigenvalues --    1.38966   1.40987   1.41033   1.41515   1.42718
  Beta virt. eigenvalues --    1.43579   1.46309   1.46564   1.49125   1.52007
  Beta virt. eigenvalues --    1.52615   1.54262   1.55140   1.55268   1.58533
  Beta virt. eigenvalues --    1.58692   1.59135   1.61605   1.62512   1.62829
  Beta virt. eigenvalues --    1.62929   1.64119   1.66843   1.67432   1.68376
  Beta virt. eigenvalues --    1.69019   1.71366   1.72519   1.74079   1.75550
  Beta virt. eigenvalues --    1.75653   1.77215   1.77890   1.78203   1.79293
  Beta virt. eigenvalues --    1.79596   1.80307   1.81458   1.81614   1.81827
  Beta virt. eigenvalues --    1.82162   1.82911   1.84604   1.84656   1.86347
  Beta virt. eigenvalues --    1.88839   1.89378   1.90769   1.90893   1.91179
  Beta virt. eigenvalues --    1.91483   1.92911   1.93481   1.93822   1.94071
  Beta virt. eigenvalues --    1.96168   1.96774   1.97913   1.98181   2.00726
  Beta virt. eigenvalues --    2.01210   2.03135   2.03441   2.05719   2.07205
  Beta virt. eigenvalues --    2.07659   2.08194   2.10596   2.11813   2.11841
  Beta virt. eigenvalues --    2.13514   2.14444   2.15235   2.17854   2.19192
  Beta virt. eigenvalues --    2.20471   2.21314   2.21516   2.22449   2.24972
  Beta virt. eigenvalues --    2.25714   2.26607   2.26925   2.27471   2.27629
  Beta virt. eigenvalues --    2.29594   2.30178   2.30724   2.33560   2.34599
  Beta virt. eigenvalues --    2.35456   2.36291   2.36379   2.37010   2.37625
  Beta virt. eigenvalues --    2.38685   2.39137   2.41155   2.41821   2.42099
  Beta virt. eigenvalues --    2.43217   2.43650   2.44863   2.44872   2.46886
  Beta virt. eigenvalues --    2.46983   2.48709   2.50161   2.51395   2.51816
  Beta virt. eigenvalues --    2.51844   2.52030   2.53473   2.53947   2.54114
  Beta virt. eigenvalues --    2.56579   2.59295   2.59420   2.59910   2.62532
  Beta virt. eigenvalues --    2.63136   2.64177   2.65990   2.67009   2.68484
  Beta virt. eigenvalues --    2.71914   2.72464   2.73259   2.75564   2.78219
  Beta virt. eigenvalues --    2.81832   2.82689   2.85664   2.88063   2.89738
  Beta virt. eigenvalues --    2.90874   2.92694   2.93897   2.98491   2.99553
  Beta virt. eigenvalues --    3.00068   3.03338   3.10537   3.10794   3.12004
  Beta virt. eigenvalues --    3.15911   3.16767   3.18927   3.18963   3.19453
  Beta virt. eigenvalues --    3.26640   3.28928   3.30630   3.32092   3.34605
  Beta virt. eigenvalues --    3.37164   3.47085   3.48125   3.66174   3.66393
  Beta virt. eigenvalues --    3.86702   3.87159   4.10465   4.12822   4.13777
  Beta virt. eigenvalues --    4.17415   4.17699   4.20656   4.21136   4.21416
  Beta virt. eigenvalues --    4.23804   4.23965   4.30314   4.30410   4.32525
  Beta virt. eigenvalues --    4.34144   4.36290   4.40584   4.43026   4.46652
  Beta virt. eigenvalues --    4.47889   4.48883   4.55203   4.63876   4.73316
  Beta virt. eigenvalues --    4.74846   4.93223   5.01877
          Condensed to atoms (all electrons):
              1          2          3          4          5          6
     1  N    7.368044   0.134126   0.089635  -0.130556  -0.244855   0.040470
     2  C    0.134126   7.057909  -0.451619  -0.495025  -1.085675   0.098098
     3  C    0.089635  -0.451619   8.305069   0.058374  -0.387495   0.502428
     4  C   -0.130556  -0.495025   0.058374   9.239650   0.439338  -0.387495
     5  C   -0.244855  -1.085675  -0.387495   0.439338   9.239650   0.058374
     6  C    0.040470   0.098098   0.502428  -0.387495   0.058374   8.305069
     7  C   -0.028263   0.097933   0.098098  -1.085675  -0.495025  -0.451619
     8  N    0.002548  -0.028263   0.040470  -0.244855  -0.130556   0.089635
     9  O   -0.044676   0.321992  -0.044462  -0.018896  -0.011826   0.031701
    10  O   -0.004968   0.007467   0.031701  -0.011826  -0.018896  -0.044462
    11  H    0.000064   0.000250  -0.001540  -0.024225   0.029230  -0.006679
    12  H    0.270349  -0.002384  -0.006679   0.029230  -0.024225  -0.001540
    13  C    0.017174  -0.110634  -0.153579  -0.395294   0.352396  -0.353915
    14  C   -0.000353  -0.108694  -0.156720  -0.103162  -0.319453  -0.566466
    15  C    0.001034   0.009586  -0.004970  -0.172934   0.049209  -0.457469
    16  H    0.000000  -0.000153  -0.000003   0.000038   0.000260   0.001821
    17  C    0.018115   0.062744   0.146037   0.226714  -0.004654  -0.145045
    18  H   -0.000006  -0.001254  -0.000049  -0.000245   0.000213  -0.001285
    19  C    0.039813   0.007160  -0.146857  -0.571317  -1.287899  -1.394528
    20  H    0.003326   0.018480   0.018370  -0.005437   0.057956  -0.043799
    21  C   -0.072530  -0.143019  -0.253194   0.262068   0.761617   0.628216
    22  N   -0.001246  -0.008597   0.009471  -0.030291   0.011391  -0.051870
    23  C   -0.071099  -0.002859  -0.566466  -0.319453  -0.103162  -0.156720
    24  C    0.065738   0.139220  -0.353915   0.352396  -0.395294  -0.153579
    25  C   -0.009834   0.033345   0.628216   0.761617   0.262068  -0.253194
    26  C   -0.079579   0.025917  -1.394528  -1.287899  -0.571317  -0.146857
    27  H    0.000689  -0.000241  -0.043799   0.057956  -0.005437   0.018370
    28  C    0.017131  -0.071889  -0.145045  -0.004654   0.226714   0.146037
    29  H    0.000058  -0.000032  -0.001285   0.000213  -0.000245  -0.000049
    30  C    0.029664   0.031702  -0.457469   0.049209  -0.172934  -0.004970
    31  H    0.000038   0.000040   0.001821   0.000260   0.000038  -0.000003
    32  N    0.022210   0.005210  -0.051870   0.011391  -0.030291   0.009471
    33  C   -0.046027  -0.045000  -0.055797  -0.026074  -0.022796  -0.009598
    34  H   -0.002330  -0.000544   0.016634   0.001965  -0.000657   0.000115
    35  C    0.000023  -0.008021  -0.009598  -0.022796  -0.026074  -0.055797
    36  H    0.000000   0.000070   0.000115  -0.000657   0.001965   0.016634
    37  S    0.002430   0.004369  -0.027718  -0.020443   0.015481   0.003108
    38  S    0.000028   0.002554   0.003108   0.015481  -0.020443  -0.027718
              7          8          9         10         11         12
     1  N   -0.028263   0.002548  -0.044676  -0.004968   0.000064   0.270349
     2  C    0.097933  -0.028263   0.321992   0.007467   0.000250  -0.002384
     3  C    0.098098   0.040470  -0.044462   0.031701  -0.001540  -0.006679
     4  C   -1.085675  -0.244855  -0.018896  -0.011826  -0.024225   0.029230
     5  C   -0.495025  -0.130556  -0.011826  -0.018896   0.029230  -0.024225
     6  C   -0.451619   0.089635   0.031701  -0.044462  -0.006679  -0.001540
     7  C    7.057909   0.134126   0.007467   0.321992  -0.002384   0.000250
     8  N    0.134126   7.368044  -0.004968  -0.044676   0.270349   0.000064
     9  O    0.007467  -0.004968   8.299427  -0.000007   0.000014  -0.002845
    10  O    0.321992  -0.044676  -0.000007   8.299427  -0.002845   0.000014
    11  H   -0.002384   0.270349   0.000014  -0.002845   0.328355   0.000000
    12  H    0.000250   0.000064  -0.002845   0.000014   0.000000   0.328355
[...]
 02914,0.00002965,0.,0.00002174,0.00003524,0.00000008,-0.00002100,-0.00
 001920,-0.00000012,-0.00000991,-0.00010357,0.00000002,-0.00002561,-0.0
 0002929,-0.00000002,-0.00000472,0.00000168,0.,0.00033761,0.00016634,-0
 .00000005,-0.00000355,0.00001075,-0.00000002,-0.00000442,0.00000296,0.
 ,-0.00000183,0.00000538,0.00000005,-0.00000017,-0.00000029,-0.00000002
 ,0.00000980,-0.00000315,0.,-0.00000134,0.00000015,-0.00000001,-0.00000
 490,-0.00000853,0.00000009,-0.00000346,0.00000174,0.00000001,0.0000089
 2,0.00000818,-0.00000004,0.00001124,-0.00000970,0.00000003,-0.00462861
 ,-0.00345571,0.00000075,-0.00479347,0.00162199,0.00000048,0.00102193,0
 .00130242,-0.00000011,-0.00046688,0.00021391,-0.00000002,0.00007778,0.
 00014696,-0.00000001,-0.00037701,-0.00046335,0.00000004,0.00014721,-0.
 00005793,-0.00000002,0.00188489,-0.00053427,0.00000008,0.00000955,0.00
 017266,-0.00000002,-0.00892276,0.03232696,-0.00000404,-0.06920107,0.06
 767710,-0.00000705,0.07905484,0.00004596,-0.00007518,-0.00000030,0.000
 00662,0.00004255,0.00000003,0.00020887,0.00004658,-0.00000003,-0.00004
 180,0.00005360,0.00000020,-0.00005047,-0.00000548,0.00000014,0.0000755
 6,-0.00001718,0.00000013,0.00002701,-0.00004223,0.00000019,0.00000416,
 0.00000007,-0.00000026,0.00000637,-0.00004480,0.,-0.00001142,0.0000374
 4,-0.00000009,0.00001107,-0.00000452,0.,-0.00004563,0.00004860,-0.0000
 0004,0.00001944,-0.00002793,0.00000001,0.00000116,-0.00001563,0.000000
 28,-0.00000133,-0.00000819,-0.00000019,0.00000024,0.00000125,-0.000000
 03,-0.00002060,0.00001029,0.00000005,-0.00000178,-0.00000081,-0.000000
 02,0.00000630,0.00002994,-0.00000027,-0.00000105,0.00000475,0.00000003
 ,-0.00004393,-0.00003090,0.00000026,-0.00002479,0.00002111,0.00000007,
 -0.00223981,0.00032730,0.00000042,0.00061216,0.00205797,0.00000072,0.0
 0012276,-0.00033509,0.00000017,0.00035416,0.00051466,-0.00000011,0.000
 01599,0.00000074,0.,-0.00067226,-0.00004803,-0.00000002,0.00002882,-0.
 00001531,-0.00000006,0.00061339,-0.00057701,0.00000037,0.00001786,0.00
 006552,-0.00000003,0.00327588,-0.00144858,-0.00000043,0.07602007,-0.33
 713445,0.00003661,-0.08161988,0.34627098,0.00000014,0.00000013,0.00016
 009,-0.00000016,-0.00000008,-0.00003049,0.00000001,-0.00000013,0.00017
 099,-0.00000018,0.00000002,-0.00004694,-0.00000010,-0.00000003,0.00002
 669,0.00000001,0.00000001,0.00001359,-0.00000015,-0.00000024,-0.000007
 05,0.00000012,0.00000002,-0.00000128,0.00000008,0.00000013,-0.00001601
 ,0.00000011,0.00000023,-0.00000195,0.,-0.00000002,0.00000681,0.0000000
 4,-0.00000006,-0.00023977,-0.00000003,0.,-0.00000896,-0.00000002,-0.00
 000003,0.00000602,0.00000006,-0.00000005,-0.00000046,0.,0.,0.00000082,
 -0.00000006,-0.00000002,-0.00000108,0.,-0.00000001,0.00000241,0.000000
 04,0.00000006,-0.00000272,-0.00000001,0.00000001,0.00000425,0.00000002
 ,-0.00000005,-0.00000905,-0.00000002,0.00000004,-0.00000280,0.00000057
 ,0.00000039,0.00125922,0.00000050,0.00000084,0.00851093,0.00000021,0.0
 0000019,0.00112703,-0.00000004,-0.00000014,-0.00032727,-0.00000003,-0.
 00000003,-0.00022765,0.00000011,-0.00000008,-0.00037588,-0.00000003,-0
 .00000007,-0.00038173,-0.00000012,0.00000034,0.00211942,0.,0.00000002,
 0.00031272,-0.00000015,-0.00000199,-0.00373223,-0.00000819,0.00003709,
 -0.03114623,0.00000799,-0.00003861,0.02253594,-0.00039477,-0.00117060,
 0.00000027,0.00082014,0.00355082,-0.00000060,-0.00182343,0.00096813,0.
 00000002,0.00149721,-0.00102808,0.00000027,0.00290565,-0.00198091,0.00
 000039,-0.00604621,0.00078719,0.,-0.00117393,-0.00019027,-0.00000018,0
 .00039389,-0.00106558,0.00000042,-0.00121175,-0.00238220,0.00000037,0.
 00030237,-0.00011668,-0.00000002,-0.00498373,0.00127340,0.00000006,-0.
 00028999,0.00015743,-0.00000002,-0.03634036,0.08206107,-0.00000861,0.0
 0492132,-0.01632539,0.00000224,-0.00977630,0.00473432,0.00000007,-0.00
 030530,-0.00135955,0.00000022,0.00008543,-0.00150639,0.00000020,-0.000
 63341,0.00039641,-0.00000003,-0.00162629,0.00504027,-0.00000106,0.0003
 7334,-0.00034642,0.,0.01603850,-0.00973759,0.00000086,-0.41644205,0.10
 603782,0.00000362,-0.00010201,0.00026998,0.00000019,-0.00033444,0.0006
 9004,-0.00000017,0.00080009,0.00054125,-0.00000006,-0.00017147,-0.0005
 9670,-0.00000011,-0.00009296,-0.00004340,-0.00000003,0.00051743,-0.000
 22193,-0.00000010,0.00000630,0.00001821,0.,-0.00000609,0.00025542,0.,-
 0.00000622,-0.00002350,-0.00000003,0.00062115,-0.00055123,0.00000007,-
 0.00052395,-0.00014730,0.00000001,-0.00000932,0.00002460,0.00000006,0.
 60507031,-0.00022866,0.00009975,0.00000073,-0.00025410,0.00034153,-0.0
 0000020,-0.00036179,0.00027608,-0.00000002,0.00007255,0.00009297,-0.00
 000038,0.00026015,-0.00041800,-0.00000018,-0.00238659,-0.00147177,0.00
 000010,0.00064632,0.00125140,-0.00000065,-0.00366257,0.00141239,0.0000
 0069,0.00010912,-0.00034691,0.00000002,-0.00017045,-0.00041612,0.00000
 027,0.00421396,0.00060806,-0.00000028,-0.00004603,0.00003498,0.0000000
 2,0.04444147,-0.05329341,0.00000548,0.00929174,-0.05788335,0.00000748,
 0.00311398,0.00646315,-0.00000081,-0.00029074,-0.00028236,0.00000009,0
 .00595279,-0.00255186,0.00000008,0.00027702,-0.00004974,0.00000004,-0.
 00287276,-0.00560285,0.00000132,-0.00030940,-0.00045377,-0.00000005,-0
 .00438953,-0.00289679,0.00000060,0.10997688,-0.13570601,0.00000468,-0.
 00002431,0.00008818,-0.00000049,-0.00011805,0.00020207,0.00000017,0.00
 028536,0.00022560,-0.00000022,-0.00003850,-0.00020052,0.00000006,0.000
 02522,-0.00001301,-0.00000010,0.00014328,-0.00005039,0.00000015,0.0000
 0327,0.00000598,0.00000002,-0.00000125,0.00007058,-0.00000011,-0.00000
 414,-0.00000516,0.00000014,0.00015311,-0.00015530,0.00000002,-0.000147
 07,-0.00004392,-0.00000015,-0.00000396,0.00000528,-0.00000002,-0.18985
 092,0.69505343,0.00000065,0.00000038,-0.00001703,-0.00000068,-0.000001
 36,0.00002266,0.00000018,-0.00000057,-0.00004200,-0.00000084,0.0000005
 0,0.00007099,-0.00000058,0.00000041,0.00000531,0.00000054,0.00000012,-
 0.00052841,-0.00000066,-0.00000175,0.00002313,0.00000101,-0.00000003,0
 .00023369,0.00000049,0.00000111,0.00000264,0.00000052,0.00000133,-0.00
 001912,-0.00000029,-0.00000021,-0.00005550,0.00000014,-0.00000005,0.00
 001047,-0.00000381,0.00000357,0.00548299,-0.00000114,0.00000922,0.0068
 5909,0.00000013,-0.00000114,0.00071716,0.00000007,0.00000006,-0.000383
 60,-0.00000100,0.00000048,0.00073947,0.,-0.00000005,-0.00015688,0.0000
 0062,0.00000063,0.00042506,-0.00000003,0.00000004,-0.00040079,0.000000
 09,0.00000115,0.00327388,0.00000310,0.00000519,-0.05684432,0.00000003,
 0.00000016,0.00002254,-0.00000025,0.,-0.00002660,0.00000064,0.00000020
 ,0.00001788,-0.00000007,-0.00000022,-0.00003767,-0.00000002,0.00000003
 ,0.00000205,0.00000017,-0.00000010,0.00002561,0.,-0.00000006,0.0000002
 2,-0.00000022,-0.00000007,-0.00001609,-0.00000005,-0.00000002,-0.00000
 028,-0.00000008,0.00000009,0.00000504,0.00000014,0.00000001,-0.0000007
 6,-0.00000002,0.00000004,0.00000042,0.00000038,-0.00006708,0.10972377,
 -0.00002131,-0.00001937,0.00000023,0.00002211,0.00003591,-0.00000006,-
 0.00002916,0.00002979,0.,-0.00001671,0.00000196,-0.00000010,-0.0000170
 2,-0.00003565,-0.00000005,0.00007502,-0.00008715,-0.00000005,0.0000870
 1,0.00016523,-0.00000016,-0.00025502,0.00001263,0.00000022,-0.00002586
 ,-0.00002983,0.00000001,-0.00001019,-0.00010414,0.00000006,0.00033756,
 0.00016636,-0.00000004,-0.00000476,0.00000171,0.,-0.00479336,0.0016218
 9,0.00000046,-0.00462868,-0.00345584,0.00000059,0.00188504,-0.00053416
 ,0.00000009,0.00000957,0.00017267,0.00000003,-0.00037695,-0.00046325,0
 .00000005,0.00014720,-0.00005790,0.,-0.00046693,0.00021389,0.00000003,
 0.00007780,0.00014696,-0.00000006,0.00102168,0.00130238,-0.00000024,-0
 .00892272,0.03232688,-0.00000401,-0.00000432,0.00000294,-0.00000007,-0
 .00000345,0.00001081,0.,0.00000865,0.00000813,-0.00000002,-0.00000487,
 -0.00000845,0.,-0.00000345,0.00000172,-0.00000003,0.00000975,-0.000003
 14,-0.00000001,-0.00000134,0.00000017,0.00000001,-0.00000193,0.0000054
 6,0.,-0.00000016,-0.00000028,0.00000003,0.00001129,-0.00000974,0.00000
 002,-0.00000937,-0.00000395,-0.00000006,-0.00000033,0.00000051,0.,-0.0
 6920120,0.06767710,-0.00000697,0.07905485,0.00000227,-0.00000101,-0.00
 000012,0.00002970,-0.00004056,0.,0.00007573,-0.00001554,0.,-0.00004879
 ,-0.00000545,0.00000012,-0.00003966,0.00005372,0.00000008,0.00020918,0
 .00004807,0.00000005,0.00000913,0.00004414,0.00000004,0.00004428,-0.00
 007649,-0.00000004,-0.00001281,0.00003518,0.,0.00000506,-0.00004679,-0
 .00000004,-0.00004610,0.00004890,-0.00000004,0.00001060,-0.00000420,0.
 ,0.00061300,0.00205770,0.00000081,-0.00223981,0.00032691,0.00000034,0.
 00061383,-0.00057692,0.00000028,0.00001785,0.00006557,0.00000002,-0.00
 067302,-0.00004787,0.,0.00002880,-0.00001523,-0.00000006,0.00035451,0.
 00051599,-0.00000031,0.00001616,0.00000053,-0.00000002,0.00012038,-0.0
 0033616,0.00000031,0.00327594,-0.00144840,-0.00000042,0.00000063,-0.00
 001636,0.00000011,0.00002007,-0.00002854,-0.00000004,-0.00004603,-0.00
 003185,0.00000002,0.00000632,0.00003094,-0.00000003,-0.00000085,0.0000
 0461,0.00000001,-0.00002085,0.00001063,-0.00000001,-0.00000180,-0.0000
 0074,0.,0.00000005,-0.00000784,0.00000001,0.00000021,0.00000130,-0.000
 00003,-0.00002475,0.00002117,0.,0.00002461,0.00000535,0.00000002,0.000
 00055,-0.00000053,0.00000001,0.07602027,-0.33713423,0.00003603,-0.0816
 1988,0.34627082,-0.00000017,0.00000001,-0.00000108,0.00000012,-0.00000
 012,-0.00000723,-0.00000022,0.00000015,0.00001353,0.00000025,0.0000000
 6,0.00002682,0.00000029,0.00000019,-0.00004687,-0.00000015,0.00000001,
 0.00017098,0.00000013,0.00000008,-0.00003065,-0.00000009,-0.00000001,0
 .00016037,-0.00000006,-0.00000006,-0.00000192,-0.00000009,-0.00000014,
 -0.00001601,-0.00000004,-0.00000005,-0.00023978,-0.00000005,0.,0.00000
 681,0.00000086,0.00000074,0.00851093,0.00000068,0.00000040,0.00125922,
 -0.00000038,0.00000048,0.00211944,0.,0.,0.00031275,0.00000004,0.000000
 24,-0.00037588,-0.00000003,-0.00000005,-0.00038172,0.00000001,-0.00000
 018,-0.00032749,-0.00000001,-0.00000006,-0.00022768,-0.00000012,-0.000
 00003,0.00112709,-0.00000017,-0.00000184,-0.00373222,-0.00000026,-0.00
 000006,0.00000601,0.00000022,-0.00000011,-0.00000896,-0.00000022,-0.00
 000015,-0.00000907,0.00000008,-0.00000027,-0.00000282,0.,0.,0.00000422
 ,0.00000005,0.00000031,-0.00000108,0.,0.00000002,0.00000242,0.00000019
 ,0.,-0.00000047,0.00000002,0.,0.00000084,-0.00000004,0.,-0.00000286,-0
 .00000007,-0.00000007,0.00000043,0.00000001,0.00000002,0.00000088,-0.0
 0000810,0.00003635,-0.03114621,0.00000787,-0.00003802,0.02253594,-0.00
 180349,0.00092712,-0.00000086,0.00079605,0.00098613,0.00000002,-0.0002
 8003,0.00045330,-0.00000022,-0.00099720,0.00009957,0.00000021,-0.00073
 737,0.00042709,-0.00000006,0.00069498,-0.00032828,0.00000051,-0.000426
 05,-0.00120098,0.00000091,-0.00007165,0.00059561,-0.00000095,-0.000233
 22,-0.00037125,0.00000001,0.00046650,0.00075482,-0.00000026,0.00011861
 ,-0.00006462,0.00000001,0.00338789,0.00049464,-0.00000016,0.00009586,-
 0.00020498,0.00000009,0.00002506,-0.00008355,0.00000065,0.00001117,-0.
 00007579,-0.00000076,0.00000035,0.00000789,-0.00000012,-0.00016979,0.0
 0007163,0.00000014,-0.00000250,-0.00000590,-0.00000005,0.00006874,0.00
 018314,0.00000008,0.00005995,0.00001528,0.00000006,-0.00024736,-0.0001
 1885,0.00000032,-0.00021009,0.00017267,0.00000019,-0.12084458,0.030298
 38,0.00000023,-0.04254768,-0.01529081,0.00000411,-0.00640807,0.0023764
 2,0.00000002,-0.00584927,-0.00858212,0.00000176,-0.00021916,0.00015287
 ,0.00000010,0.01331544,-0.00295339,0.00000006,0.00059355,-0.00037148,0
 .00000003,-0.00052783,0.01820499,-0.00000239,0.00059402,-0.00003219,-0
 .00000021,-0.07922514,0.01214568,0.00000335,-0.08302066,-0.04151948,0.
 00000816,0.00604974,0.00328330,-0.00000071,0.00016257,0.00003703,-0.00
 000010,0.00000177,-0.00000782,0.00000008,0.31743971,-0.00123992,0.0007
 4505,-0.00000019,0.00056839,0.00037701,0.00000004,0.00090328,-0.002358
 80,0.00000046,-0.00101373,0.00076025,-0.00000015,-0.00057573,0.0003241
 8,-0.00000011,0.00033011,-0.00013822,-0.00000003,-0.00014874,-0.001090
 25,0.00000019,0.00010800,0.00023063,-0.00000025,-0.00009610,0.00006071
 ,-0.00000001,0.00035994,0.00068361,-0.00000009,0.00004625,-0.00002509,
 0.,0.00302088,-0.00008449,-0.00000002,0.00006233,-0.00013815,-0.000000
 10,0.00001905,-0.00004621,-0.00000010,-0.00000149,-0.00005321,0.000000
 34,0.00000157,0.00000441,-0.00000004,-0.00009362,0.00003895,-0.0000000
 6,-0.00000062,-0.00000358,-0.00000002,0.00002682,0.00011337,0.00000033
 ,0.00001139,0.00000823,0.,-0.00015442,-0.00010805,-0.00000023,-0.00011
 347,0.00010681,0.00000005,0.06986133,-0.08408983,0.00000368,0.02599654
 ,-0.00943370,0.00000069,-0.00279726,0.00132823,0.00000065,0.00463369,0
 .00147458,-0.00000061,-0.00008717,0.00023667,-0.00000003,-0.00976177,-
 0.00128818,0.00000129,0.00099584,-0.00027337,0.00000008,0.02833695,-0.
 02361298,0.00000142,-0.00001431,0.00088168,-0.00000033,-0.04705331,-0.
 00107351,0.00000524,-0.05427755,-0.10728590,0.00001213,-0.01747400,-0.
 00970201,0.00000211,0.00009580,0.00003043,-0.00000005,0.00000160,-0.00
 000485,0.00000003,-0.00045032,0.23342419,-0.00000076,-0.00000130,-0.00
 041590,0.00000156,0.00000175,0.00000313,0.00000067,0.00000145,0.000639
 97,0.00000131,-0.00000058,-0.00036554,0.00000056,-0.00000068,-0.000027
 80,0.00000050,0.00000086,0.00003609,0.00000171,0.00000212,0.00000755,-
 0.00000120,-0.00000065,0.00000994,-0.00000087,-0.00000161,-0.00003054,
 -0.00000103,-0.00000201,0.00000164,-0.00000023,0.00000026,0.00000161,-
 0.00000080,0.00000033,0.00081217,-0.00000054,-0.00000011,0.00000901,-0
 .00000045,-0.00000060,-0.00001148,0.00000141,0.00000003,0.00000234,0.,
 0.00000008,0.00000114,0.00000014,-0.00000067,-0.00000333,-0.00000003,0
 .00000010,0.00000309,-0.00000024,0.00000061,-0.00000470,0.00000013,-0.
 00000004,0.00000643,-0.00000094,0.00000021,0.00001718,0.00000019,-0.00
 000027,0.00000098,-0.00000433,0.00000523,-0.03149311,-0.00000114,0.000
 00245,0.00392380,-0.00000046,-0.00000007,0.00419890,-0.00000049,0.0000
 0179,-0.00098112,0.00000012,-0.00000022,-0.00033251,0.00000026,0.00000
 011,0.00416707,-0.00000014,0.00000023,0.00085909,-0.00000387,0.0000023
 1,-0.00203245,-0.00000010,-0.00000031,-0.00195204,0.00001138,0.0000025
 5,0.02194967,0.00000971,0.00001173,-0.03798744,0.00000203,0.00000101,0
 .00030071,-0.00000011,0.00000031,-0.00000119,0.00000009,-0.00000008,0.
 00000066,-0.00001388,-0.00002627,0.03868279,-0.00007101,0.00059630,-0.
 00000072,-0.00042673,-0.00120023,0.00000033,0.00069487,-0.00032932,-0.
 00000016,-0.00073903,0.00042700,0.00000013,-0.00099720,0.00009931,-0.0
 0000003,-0.00028015,0.00045263,0.00000043,0.00079451,0.00098503,0.0000
 0039,-0.00180282,0.00092746,-0.00000072,0.00046671,0.00075453,-0.00000
 018,-0.00023245,-0.00036975,-0.00000002,0.00338805,0.00049443,-0.00000
 018,0.00011897,-0.00006468,0.00000002,-0.04254818,-0.01528983,0.000004
 20,-0.12084531,0.03029845,0.00000073,-0.00052753,0.01820410,-0.0000031
 3,0.00059403,-0.00003218,-0.00000021,0.01331567,-0.00295394,0.00000006
 ,0.00059355,-0.00037136,0.00000002,-0.00584882,-0.00858299,0.00000148,
 -0.00021936,0.00015296,0.00000001,-0.00640808,0.00237690,0.00000041,-0
 .07922504,0.01214560,0.00000349,0.00002574,-0.00008277,0.,0.00009592,-
 0.00020534,-0.00000002,-0.00024508,-0.00011812,-0.00000019,0.00006791,
 0.00018282,0.00000029,0.00005995,0.00001540,0.00000009,-0.00016930,0.0
 0007185,0.00000018,-0.00000248,-0.00000607,-0.00000002,0.00001009,-0.0
 0007529,0.00000006,0.00000033,0.00000781,-0.00000006,-0.00021008,0.000
 17241,-0.00000002,0.00016228,0.00003698,0.00000013,0.00000171,-0.00000
 749,-0.00000004,-0.08302056,-0.04151940,0.00000791,0.00604980,0.003283
 01,-0.00000062,-0.00006083,-0.00002626,-0.00000018,0.31743993,0.000108
 94,0.00023142,-0.00000016,-0.00014973,-0.00108994,0.00000017,0.0003301
 5,-0.00013954,0.00000003,-0.00057731,0.00032403,0.00000010,-0.00101430
 ,0.00075961,0.,0.00090246,-0.00235942,0.00000030,0.00056682,0.00037625
 ,-0.00000007,-0.00123897,0.00074615,-0.00000017,0.00036036,0.00068392,
 -0.00000010,-0.00009523,0.00006193,-0.00000004,0.00302126,-0.00008482,
 -0.00000003,0.00004640,-0.00002527,0.,0.02599563,-0.00943341,0.0000004
 6,0.06986185,-0.08408969,0.00000377,0.02833604,-0.02361248,0.00000151,
 -0.00001430,0.00088162,-0.00000035,-0.00976097,-0.00128787,0.00000120,
 0.00099586,-0.00027344,0.00000009,0.00463367,0.00147332,-0.00000076,-0
 .00008723,0.00023676,-0.00000006,-0.00279528,0.00132858,0.00000067,-0.
 04705354,-0.00107352,0.00000527,0.00001938,-0.00004591,0.00000017,0.00
 006211,-0.00013795,-0.00000007,-0.00015379,-0.00010738,0.00000010,0.00
 002712,0.00011220,-0.00000009,0.00001123,0.00000830,0.,-0.00009371,0.0
 0003940,-0.00000008,-0.00000061,-0.00000360,0.,-0.00000210,-0.00005336
 ,0.00000005,0.00000157,0.00000432,-0.00000003,-0.00011353,0.00010683,0
 .00000001,0.00009560,0.00003020,0.,0.00000160,-0.00000477,0.00000002,-
 0.05427780,-0.10728641,0.00001201,-0.01747399,-0.00970199,0.00000213,-
 0.00002572,-0.00001860,-0.00000007,-0.00044995,0.23342456,-0.00000031,
 -0.00000119,0.00001071,0.00000107,0.00000274,0.00000767,0.00000135,0.0
 0000054,0.00003623,0.00000038,-0.00000099,-0.00002860,-0.00000063,-0.0
 0000166,-0.00036577,0.00000091,0.00000074,0.00063965,0.00000077,0.0000
 0204,0.00000293,-0.00000047,-0.00000035,-0.00041593,-0.00000067,-0.000
 00158,0.00000151,-0.00000058,-0.00000157,-0.00003023,-0.00000052,0.000
 00033,0.00081223,-0.00000007,0.00000025,0.00000165,-0.00000289,0.00000
 255,0.00392392,-0.00000572,0.00000484,-0.03149369,-0.00000154,0.000001
 65,-0.00203265,-0.00000015,-0.00000023,-0.00195202,0.00000153,-0.00000
 083,0.00416707,-0.00000016,0.00000030,0.00085918,-0.00000099,0.0000005
 2,-0.00097986,0.00000011,0.,-0.00033256,0.00000091,0.00000147,0.004198
 11,0.00001116,0.00000195,0.02194923,0.00000176,-0.00000016,-0.00001174
 ,-0.00000081,0.00000052,0.00000903,-0.00000047,0.00000031,0.00001748,-
 0.00000042,0.00000259,-0.00000503,0.00000007,-0.00000012,0.00000637,-0
 .00000089,-0.00000190,-0.00000335,-0.00000004,0.00000004,0.00000309,-0
 .00000070,0.00000019,0.00000242,0.,0.00000004,0.00000133,0.00000041,-0
 .00000016,0.00000134,0.00000017,0.00000053,-0.00000136,-0.00000003,-0.
 00000025,0.00000061,0.00000951,0.00001190,-0.03798762,0.00000216,0.000
 00101,0.00030068,-0.00000035,-0.00000005,0.00000418,-0.00001386,-0.000
 02601,0.03868381||0.00000066,-0.00000024,0.00000081,0.00000087,-0.0000
 0002,-0.00000210,-0.00000075,0.00000018,-0.00000059,0.00000127,0.00000
 057,-0.00000021,-0.00000127,-0.00000057,0.00000039,0.00000075,-0.00000
 018,0.00000069,-0.00000087,0.00000002,0.00000120,-0.00000066,0.0000002
 4,-0.00000055,-0.00000053,0.00000052,0.00000063,0.00000053,-0.00000052
 ,-0.00000040,0.00000025,-0.00000035,-0.00000015,-0.00000025,0.00000035
 ,0.00000038,0.00000019,-0.00000064,0.00000014,0.00000049,-0.00000087,-
 0.00000014,0.00000132,0.00000136,-0.00000006,-0.00000081,-0.00000017,0
 .,-0.00000084,-0.00000010,0.,0.,-0.00000026,0.00000001,0.00000142,-0.0
 0000026,0.00000009,-0.00000013,0.00000001,-0.00000005,-0.00000122,0.00
 000102,-0.00000008,0.00000002,0.00000036,-0.00000004,-0.00000049,0.000
 00087,0.00000021,-0.00000019,0.00000064,0.00000001,0.00000122,-0.00000
 102,-0.00000006,-0.00000142,0.00000026,0.00000002,0.00000013,-0.000000
 01,0.00000004,0.00000084,0.00000010,-0.00000008,0.,0.00000026,0.,-0.00
 000132,-0.00000136,0.00000017,0.00000081,0.00000017,-0.00000003,-0.000
 00002,-0.00000036,-0.00000044,0.00000106,-0.00000109,0.00000051,0.,-0.
 00000015,0.,-0.00000106,0.00000109,-0.00000006,0.,0.00000015,-0.000000
 02,-0.00000124,-0.00000074,-0.00000039,0.00000124,0.00000074,0.0000001
 3|||@


 SEE YOU NOW,
 YOUR BAIT OF FALSEHOOD TAKES THIS CARP OF TRUTH.
 AND THUS DO WE OF WISDOM AND OF REACH...
 BY INDIRECTIONS FIND DIRECTIONS OUT.    -- HAMLET, II, 1
 Job cpu time:  0 days  8 hours  5 minutes 14.0 seconds.
 File lengths (MBytes):  RWF=   2467 Int=      0 D2E=      0 Chk=     29 Scr=      1
 Normal termination of Gaussian 09 at Thu Oct 05 18:30:08 2023.
