34
	Energy: -597816.3362520
N          1.13958        1.78420        0.00001
C         -0.27772        1.79357        0.00004
C          1.68564        0.50503       -0.00004
C          0.61261       -0.37423       -0.00004
C         -0.61261        0.37423        0.00002
C         -1.68564       -0.50503        0.00003
C          0.27772       -1.79357       -0.00007
N         -1.13958       -1.78419       -0.00004
O         -0.94648        2.82339        0.00009
O          0.94649       -2.82338       -0.00013
H         -1.65766       -2.64935        0.00002
H          1.65766        2.64936       -0.00002
C         -3.12324       -0.26657        0.00008
C         -3.61291        1.05742        0.00020
C         -4.04904       -1.33073        0.00002
C         -4.98500        1.29774        0.00026
H         -2.91401        1.88874        0.00025
C         -5.41927       -1.08081        0.00007
H         -3.71245       -2.36292       -0.00009
C         -5.89351        0.23465        0.00020
H         -5.34530        2.32207        0.00035
H         -6.11675       -1.91303        0.00002
H         -6.96214        0.42798        0.00024
C          3.12324        0.26657       -0.00008
C          4.04905        1.33072       -0.00022
C          3.61290       -1.05742        0.00002
C          5.41928        1.08080       -0.00025
H          3.71246        2.36292       -0.00028
C          4.98499       -1.29775       -0.00002
H          2.91400       -1.88874        0.00015
C          5.89351       -0.23466       -0.00016
H          6.11676        1.91301       -0.00035
H          5.34529       -2.32208        0.00007
H          6.96213       -0.42800       -0.00018
