36
	Energy: -1233382.9904930
N          0.61822       -1.41878        2.36773
C          1.07122       -0.07699        2.40408
C          0.04274       -1.75661        1.14727
C          0.10609       -0.62392        0.34188
C          0.72787        0.42066        1.07724
C          0.79121        1.55335        0.27186
C         -0.23727       -0.12627       -0.98495
N          0.21574        1.21552       -0.94861
O          1.61314        0.45348        3.36890
O         -0.77919       -0.65674       -1.94978
H          0.13620        1.87105       -1.71872
H          0.69773       -2.07430        3.13785
C          1.32892        3.95588       -0.37222
C          1.93117        5.13539        0.20184
C          1.56456        6.26146       -1.72465
H          1.63336        7.16949       -2.32030
C          0.96498        5.09047       -2.29888
H          0.58817        5.12505       -3.31871
C          1.31043        2.86131        0.51441
C          2.35968        4.92537        1.50679
H          2.84103        5.63796        2.16191
S          2.03916        3.32741        2.02970
N          0.84292        3.95371       -1.64700
N          2.04274        6.30210       -0.50267
C         -1.09726       -5.33864        1.21730
C         -0.49500       -4.15913        1.79136
C         -0.13110       -5.29371        3.71803
H          0.24569       -5.32829        4.73787
C         -0.73069       -6.46469        3.14380
H         -0.79951       -7.37272        3.73946
C         -1.52575       -5.12862       -0.08766
H         -2.00709       -5.84121       -0.74278
C         -0.47648       -3.06457        0.90472
S         -1.20520       -3.53067       -0.61057
N         -1.20884       -6.50534        1.92182
N         -0.00902       -4.15695        3.06615
