68
	Energy: -1580074.1361726
N          1.15124        1.77731       -0.18196
C         -0.26533        1.79490       -0.17686
C          1.69043        0.49397       -0.17928
C          0.60898       -0.37823       -0.17514
C         -0.60898        0.37823       -0.17514
C         -1.69043       -0.49397       -0.17928
C          0.26533       -1.79490       -0.17686
N         -1.15124       -1.77731       -0.18196
O         -0.92916        2.82880       -0.17324
O          0.92916       -2.82880       -0.17324
H         -1.67455       -2.63927       -0.17217
H          1.67455        2.63927       -0.17217
C         -3.11993       -0.24492       -0.18183
C         -3.60865        1.08116       -0.15963
C         -4.06202       -1.29478       -0.20228
C         -4.97217        1.33339       -0.15272
H         -2.90778        1.91079       -0.13771
C         -5.42530       -1.03522       -0.20526
H         -3.74128       -2.33172       -0.22734
C         -5.91830        0.28580       -0.18061
H         -5.31115        2.36293       -0.10644
H         -6.11826       -1.87013       -0.24423
C          3.11993        0.24492       -0.18183
C          3.60865       -1.08116       -0.15963
C          4.06202        1.29478       -0.20228
C          4.97217       -1.33339       -0.15272
H          2.90778       -1.91079       -0.13771
C          5.42530        1.03523       -0.20526
H          3.74128        2.33172       -0.22734
C          5.91830       -0.28580       -0.18061
H          5.31115       -2.36293       -0.10644
H          6.11826        1.87013       -0.24423
C         -7.35146        0.57352       -0.18505
C         -7.99193        1.75140       -0.51964
S         -8.53567       -0.63575        0.27673
C         -9.40453        1.68443       -0.41870
H         -7.46381        2.63303       -0.86372
C         -9.87565        0.45475       -0.00464
H        -10.06055        2.50718       -0.67903
C          7.35146       -0.57352       -0.18505
C          7.99193       -1.75140       -0.51964
S          8.53567        0.63575        0.27673
C          9.40453       -1.68443       -0.41870
H          7.46381       -2.63303       -0.86372
C          9.87565       -0.45475       -0.00464
H         10.06055       -2.50718       -0.67903
C         11.26604       -0.03406        0.20844
C         11.66411        1.30716        0.05053
C         12.24316       -0.98034        0.57556
C         12.99125        1.68705        0.24948
H         10.93386        2.05273       -0.25046
C         13.57097       -0.59951        0.76349
H         11.95314       -2.01423        0.73467
C         13.95241        0.73620        0.60339
H         13.27603        2.72700        0.11848
H         14.30689       -1.34570        1.04896
H         14.98591        1.03267        0.75539
C        -11.26604        0.03406        0.20844
C        -11.66411       -1.30716        0.05053
C        -12.24316        0.98033        0.57556
C        -12.99125       -1.68705        0.24948
H        -10.93386       -2.05273       -0.25046
C        -13.57097        0.59951        0.76349
H        -11.95314        2.01423        0.73468
C        -13.95241       -0.73620        0.60339
H        -13.27603       -2.72700        0.11848
H        -14.30689        1.34570        1.04896
H        -14.98591       -1.03267        0.75539
