54
	Energy: -955584.0923799
N          1.21471       -1.73375        0.05954
C         -0.20886       -1.80818       -0.01906
C          1.68654       -0.42953       -0.01969
C          0.59708        0.40957       -0.13096
C         -0.59708       -0.40957       -0.13096
C         -1.68654        0.42953       -0.01970
C          0.20886        1.80818       -0.01906
N         -1.21471        1.73375        0.05954
O         -0.83083       -2.86149       -0.00224
O          0.83083        2.86149       -0.00224
H         -1.79105        2.55862       -0.03699
H          1.79105       -2.55863       -0.03699
C         -6.04934       -1.39737       -1.21805
C         -5.12971       -0.61062       -0.51531
C         -3.74759       -0.74665       -0.77909
C         -3.26340       -1.63698       -1.73661
C         -4.19893       -2.41002       -2.42591
C         -5.57607       -2.29737       -2.17123
H         -7.11424       -1.30394       -1.02658
H         -2.20506       -1.75082       -1.92705
H         -3.84784       -3.11989       -3.16846
H         -6.27596       -2.91769       -2.72255
N         -3.04114        0.17702        0.03143
C         -3.98225        0.88373        0.81830
C         -5.27877        0.41672        0.49877
C         -3.77163        1.84114        1.81455
C         -6.38842        0.94744        1.16577
C         -4.89478        2.35791        2.46471
H         -2.77686        2.16467        2.09822
C         -6.19076        1.92382        2.14147
H         -7.38926        0.59686        0.93189
H         -4.75636        3.10387        3.24132
H         -7.04349        2.34424        2.66541
C          6.38842       -0.94745        1.16575
C          5.27878       -0.41673        0.49876
C          3.98226       -0.88373        0.81830
C          3.77164       -1.84114        1.81455
C          4.89479       -2.35791        2.46470
C          6.19077       -1.92383        2.14146
H          7.38926       -0.59686        0.93187
H          2.77687       -2.16467        2.09823
H          4.75638       -3.10388        3.24131
H          7.04350       -2.34425        2.66538
N          3.04114       -0.17702        0.03144
C          3.74758        0.74665       -0.77908
C          5.12971        0.61062       -0.51532
C          3.26339        1.63699       -1.73659
C          6.04934        1.39737       -1.21805
C          4.19891        2.41003       -2.42590
H          2.20504        1.75083       -1.92702
C          5.57605        2.29738       -2.17122
H          7.11424        1.30394       -1.02659
H          3.84782        3.11990       -3.16844
H          6.27595        2.91770       -2.72255
