60
	Energy: -889442.3420276
N         -0.98539       -1.77734        0.00557
C          0.42620       -1.67163        0.07354
C         -1.63250       -0.54639       -0.07092
C         -0.63064        0.41459       -0.05474
C          0.64750       -0.23460        0.03364
C          1.64996        0.72620        0.05225
C         -0.40798        1.85266       -0.09348
N          1.00453        1.95720       -0.02357
O          1.17388       -2.64613        0.14578
O         -1.15379        2.82729       -0.16640
H          1.45197        2.86087       -0.03461
H         -1.43175       -2.68142        0.01518
C          5.90043        0.31280        0.29005
C          5.07215       -0.82057        0.28274
C          3.68974       -0.67300        0.20469
H          3.06049       -1.55884        0.19987
C          3.09409        0.60252        0.13216
C          3.94538        1.73128        0.14130
H          3.53824        2.73644        0.08865
C          5.32133        1.59256        0.21864
H          5.97270        2.46013        0.22646
H          5.48908       -1.81867        0.33732
O          7.25627        0.28023        0.36391
C          7.92580       -0.98706        0.44709
H          7.67156       -1.59136       -0.43504
H          7.58242       -1.51969        1.34371
C          9.42473       -0.73030        0.51300
H          9.91363       -1.69570        0.70356
H          9.63468       -0.09539        1.38362
C         10.01135       -0.09474       -0.75456
H          9.50394        0.85735       -0.94718
H          9.79305       -0.74240       -1.61523
C         11.52354        0.13515       -0.65685
H         12.06099       -0.80669       -0.49341
H         11.91651        0.58725       -1.57360
H         11.76894        0.80535        0.17543
C         -5.88552       -0.14922       -0.29873
C         -5.30767       -1.42601       -0.22236
C         -3.92147       -1.55069       -0.14836
H         -3.51068       -2.55416       -0.09054
C         -3.07731       -0.42517       -0.14797
C         -3.67954        0.85448       -0.22631
H         -3.05322        1.74221       -0.22775
C         -5.05550        0.98638       -0.30046
H         -5.51673        1.96664       -0.36103
H         -5.91937       -2.31959       -0.22006
O         -7.22075        0.08923       -0.37493
C         -8.13561       -1.01562       -0.37197
H         -7.99708       -1.60027        0.54872
H         -7.92312       -1.66541       -1.23158
C         -9.55184       -0.46313       -0.45248
H        -10.23078       -1.31957       -0.56626
H         -9.64459        0.13466       -1.36850
C         -9.97177        0.37225        0.76439
H         -9.28141        1.21579        0.87618
H         -9.86662       -0.23757        1.67273
C        -11.41029        0.89055        0.65905
H        -12.12726        0.06489        0.57563
H        -11.68467        1.48134        1.53931
H        -11.53715        1.53007       -0.22239
