40
	Energy: -1193120.7528928
N          1.35556       -0.43339       -0.07640
C          0.70668       -0.29355        1.18257
C          2.30566        0.56331       -0.31424
C          2.32264        1.36237        0.82476
C          1.37679        0.85587        1.76873
C          1.49636        1.56305        2.96113
C          3.04613        2.46394        1.43868
N          2.51177        2.50109        2.75733
O         -0.20697       -1.01892        1.56215
O          3.89652        3.24599        1.02618
H          2.67343        3.30357        3.34788
H          0.95286       -1.01975       -0.79255
C          4.06378        0.15125       -3.62541
C          3.29088       -0.35856       -2.51211
C          2.92530       -1.73810       -2.51790
C          3.26829       -2.53248       -3.58809
H          2.99385       -3.58317       -3.58046
C          3.99376       -2.01295       -4.70184
H          4.24119       -2.67159       -5.52872
C          4.39553       -0.70114       -4.72138
H          4.96856       -0.30325       -5.55377
C          3.06155        0.63310       -1.52762
C          4.41218        1.48838       -3.45473
H          4.99112        2.10816       -4.12645
S          3.83619        2.12962       -1.98382
C          1.15194        1.91168        5.49328
C          0.12406        1.63018        6.47347
C          0.29551        2.03301        7.83212
H         -0.48743        1.82288        8.55488
C          1.45101        2.67141        8.20620
H          1.59355        2.98201        9.23671
C          2.48618        2.91360        7.25415
H          3.40622        3.38717        7.58364
C          2.35229        2.54494        5.93501
C         -0.95629        0.94744        5.92100
H         -1.84975        0.60903        6.42866
C          0.79950        1.44032        4.20521
S         -0.74906        0.63587        4.25777
H          2.41750       -2.18145       -1.66941
H          3.18058        2.70113        5.25393
