38
	Energy: -1213264.0955899
N          1.61724        1.37642        0.00001
C          0.26682        1.79452        0.00001
C          1.75734       -0.00219        0.00001
C          0.47056       -0.53663        0.00003
C         -0.47057        0.53664        0.00003
C         -1.75734        0.00219        0.00001
C         -0.26682       -1.79452        0.00000
N         -1.61724       -1.37642       -0.00001
O         -0.08774        2.97318        0.00001
O          0.08774       -2.97317        0.00000
H         -2.41037       -2.00978        0.00000
H          2.41037        2.00979        0.00001
C         -4.29727       -0.07466       -0.00000
C         -5.55684        0.64507       -0.00001
C         -5.57408        2.07059       -0.00001
H         -6.51932        2.60434       -0.00001
C         -4.37450        2.74037       -0.00000
H         -4.35883        3.82571       -0.00000
C         -3.13198        2.04866        0.00000
H         -2.21210        2.62847        0.00001
C         -3.05029        0.66042        0.00000
C         -6.61325       -0.25864       -0.00001
H         -7.67492       -0.04937       -0.00002
S         -5.99683       -1.84597       -0.00001
N         -4.39309       -1.41056       -0.00000
C          4.29727        0.07466       -0.00000
C          5.55684       -0.64507       -0.00001
C          5.57408       -2.07060       -0.00001
H          6.51931       -2.60434       -0.00001
C          4.37449       -2.74037        0.00000
H          4.35882       -3.82571        0.00000
C          3.13197       -2.04866        0.00001
H          2.21210       -2.62846        0.00002
C          3.05029       -0.66042        0.00001
C          6.61325        0.25863       -0.00001
H          7.67492        0.04936       -0.00002
S          5.99683        1.84597       -0.00001
N          4.39310        1.41056       -0.00000
