36
	Energy: -1233393.9840134
N         -1.60520       -1.39151        0.00003
C         -0.24992       -1.79776        0.00001
C         -1.75605       -0.01349        0.00001
C         -0.47528        0.53182       -0.00001
C          0.47527       -0.53182        0.00000
C          1.75605        0.01349       -0.00001
C          0.24992        1.79777       -0.00004
N          1.60521        1.39151       -0.00004
O          0.11645       -2.97110        0.00004
O         -0.11645        2.97111       -0.00005
H          2.38599        2.03852       -0.00006
H         -2.38598       -2.03853        0.00004
C          4.28958        0.10920       -0.00003
C          5.56313       -0.58884       -0.00002
C          5.61094       -2.01104        0.00001
H          6.56949       -2.51765        0.00001
C          4.41595       -2.69095        0.00002
H          4.41420       -3.77643        0.00003
C          3.15968       -2.02115        0.00001
H          2.25084       -2.61792        0.00003
C          3.05343       -0.63422       -0.00001
S          6.03815        1.76399       -0.00006
N          4.42189        1.44162       -0.00006
N          6.62207        0.23273       -0.00004
C         -5.56313        0.58884        0.00003
C         -4.28958       -0.10920        0.00003
C         -3.05343        0.63422        0.00001
C         -3.15968        2.02114       -0.00000
H         -2.25084        2.61792       -0.00002
C         -4.41595        2.69095        0.00001
H         -4.41420        3.77643       -0.00000
C         -5.61094        2.01104        0.00002
H         -6.56949        2.51766        0.00003
S         -6.03815       -1.76400        0.00006
N         -6.62207       -0.23273        0.00005
N         -4.42189       -1.44162        0.00004
