42
	Energy: -1214737.1386706
N          1.62671        1.35843       -0.69949
C          0.27913        1.80035       -0.69247
C          1.74551       -0.01481       -0.67030
C          0.47449       -0.54715       -0.65438
C         -0.47450        0.54715       -0.65437
C         -1.74552        0.01482       -0.67032
C         -0.27913       -1.80034       -0.69250
N         -1.62672       -1.35842       -0.69954
O         -0.04349        2.98382       -0.72909
O          0.04348       -2.98381       -0.72913
H         -2.43526       -1.97466       -0.69755
H          2.43525        1.97468       -0.69752
C         -4.25036       -0.13476       -0.14280
C         -5.27663        0.54154        0.66369
C         -5.18107        1.85757        0.97675
H         -5.93787        2.34069        1.58669
C         -4.03998        2.63632        0.52037
H         -3.98112        3.67682        0.82598
C         -3.06267        2.11648       -0.24457
H         -2.21155        2.71591       -0.55231
C         -3.10474        0.68535       -0.73851
N         -4.38733       -1.39439       -0.36595
C          5.27663       -0.54154        0.66369
C          4.25036        0.13475       -0.14280
C          3.10473       -0.68535       -0.73850
C          3.06266       -2.11648       -0.24455
H          2.21154       -2.71590       -0.55229
C          4.03997       -2.63631        0.52039
H          3.98110       -3.67682        0.82601
C          5.18107       -1.85757        0.97676
H          5.93787       -2.34069        1.58670
N          4.38734        1.39439       -0.36596
C          5.56785        1.97024        0.23011
H          5.28953        2.75387        0.94179
H          6.20606        2.41033       -0.54250
C         -5.56782       -1.97025        0.23013
H         -6.20604       -2.41036       -0.54246
H         -5.28949       -2.75386        0.94182
S          6.51323        0.62679        1.12873
S         -6.51322       -0.62680        1.12875
H          3.34403       -0.73869       -1.81824
H         -3.34404        0.73868       -1.81825
