 Entering Gaussian System, Link 0=g09
 Initial command:
 /apps/software//g09/l1.exe /scratch/nathalia.rosa/82985.cluster.abaxnet/Gau-60021.inp -scrdir=/scratch/nathalia.rosa/82985.cluster.abaxnet/
 Entering Link 1 = /apps/software//g09/l1.exe PID=     60022.
  
 Copyright (c) 1988,1990,1992,1993,1995,1998,2003,2009, Gaussian, Inc.
                  All Rights Reserved.
  
 This is part of the Gaussian(R) 09 program.  It is based on
 the Gaussian(R) 03 system (copyright 2003, Gaussian, Inc.),
 the Gaussian(R) 98 system (copyright 1998, Gaussian, Inc.),
 the Gaussian(R) 94 system (copyright 1995, Gaussian, Inc.),
 the Gaussian 92(TM) system (copyright 1992, Gaussian, Inc.),
 the Gaussian 90(TM) system (copyright 1990, Gaussian, Inc.),
 the Gaussian 88(TM) system (copyright 1988, Gaussian, Inc.),
 the Gaussian 86(TM) system (copyright 1986, Carnegie Mellon
 University), and the Gaussian 82(TM) system (copyright 1983,
 Carnegie Mellon University). Gaussian is a federally registered
 trademark of Gaussian, Inc.
  
 This software contains proprietary and confidential information,
 including trade secrets, belonging to Gaussian, Inc.
  
 This software is provided under written license and may be
 used, copied, transmitted, or stored only in accord with that
 written license.
  
 The following legend is applicable only to US Government
 contracts under FAR:
  
                    RESTRICTED RIGHTS LEGEND
  
 Use, reproduction and disclosure by the US Government is
 subject to restrictions as set forth in subparagraphs (a)
 and (c) of the Commercial Computer Software - Restricted
 Rights clause in FAR 52.227-19.
  
 Gaussian, Inc.
 340 Quinnipiac St., Bldg. 40, Wallingford CT 06492
  
  
 ---------------------------------------------------------------
 Warning -- This program may not be used in any manner that
 competes with the business of Gaussian, Inc. or will provide
 assistance to any competitor of Gaussian, Inc.  The licensee
 of this program is prohibited from giving any competitor of
 Gaussian, Inc. access to this program.  By using this program,
 the user acknowledges that Gaussian, Inc. is engaged in the
 business of creating and licensing software in the field of
 computational chemistry and represents and warrants to the
 licensee that it is not a competitor of Gaussian, Inc. and that
 it will not use this program in any manner prohibited above.
 ---------------------------------------------------------------
  

 Cite this work as:
 Gaussian 09, Revision A.02,
 M. J. Frisch, G. W. Trucks, H. B. Schlegel, G. E. Scuseria, 
 M. A. Robb, J. R. Cheeseman, G. Scalmani, V. Barone, B. Mennucci, 
 G. A. Petersson, H. Nakatsuji, M. Caricato, X. Li, H. P. Hratchian, 
 A. F. Izmaylov, J. Bloino, G. Zheng, J. L. Sonnenberg, M. Hada, 
 M. Ehara, K. Toyota, R. Fukuda, J. Hasegawa, M. Ishida, T. Nakajima, 
 Y. Honda, O. Kitao, H. Nakai, T. Vreven, J. A. Montgomery, Jr., 
 J. E. Peralta, F. Ogliaro, M. Bearpark, J. J. Heyd, E. Brothers, 
 K. N. Kudin, V. N. Staroverov, R. Kobayashi, J. Normand, 
 K. Raghavachari, A. Rendell, J. C. Burant, S. S. Iyengar, J. Tomasi, 
 M. Cossi, N. Rega, J. M. Millam, M. Klene, J. E. Knox, J. B. Cross, 
 V. Bakken, C. Adamo, J. Jaramillo, R. Gomperts, R. E. Stratmann, 
 O. Yazyev, A. J. Austin, R. Cammi, C. Pomelli, J. W. Ochterski, 
 R. L. Martin, K. Morokuma, V. G. Zakrzewski, G. A. Voth, 
 P. Salvador, J. J. Dannenberg, S. Dapprich, A. D. Daniels, 
 O. Farkas, J. B. Foresman, J. V. Ortiz, J. Cioslowski, 
 and D. J. Fox, Gaussian, Inc., Wallingford CT, 2009.
 
 ******************************************
 Gaussian 09:  EM64L-G09RevA.02 11-Jun-2009
                13-Sep-2023 
 ******************************************
 %chk=/home/nathalia.rosa/DPP-SUB/DPP-SUB-4a/CATION/DPP-SUB-4A-CATION.chk
 -----------------------------------------------------------
 # opt=tight freq b3lyp/6-31+g(d,p) nosymm geom=connectivity
 -----------------------------------------------------------
 1/7=10,14=-1,18=20,19=15,26=3,38=1,57=2/1,3;
 2/9=110,12=2,15=1,17=6,18=5,40=1/2;
 3/5=1,6=6,7=111,11=2,16=1,25=1,30=1,71=1,74=-5/1,2,3;
 4//1;
 5/5=2,38=5/2;
 6/7=2,8=2,9=2,10=2,28=1/1;
 7/30=1/1,2,3,16;
 1/7=10,14=-1,18=20,19=15/3(2);
 2/9=110,15=1/2;
 99//99;
 2/9=110,15=1/2;
 3/5=1,6=6,7=111,11=2,16=1,25=1,30=1,71=1,74=-5/1,2,3;
 4/5=5,16=3/1;
 5/5=2,38=5/2;
 7/30=1/1,2,3,16;
 1/7=10,14=-1,18=20,19=15/3(-5);
 2/9=110,15=1/2;
 6/7=2,8=2,9=2,10=2,19=2,28=1/1;
 99/9=1/99;
 -------------------
 Title Card Required
 -------------------
 Symbolic Z-matrix:
 Charge =  1 Multiplicity = 2
 N                     1.59568   1.41644  -0.18833 
 C                     0.22698   1.7987   -0.26072 
 C                     1.78467   0.05247  -0.21942 
 C                     0.47651  -0.51133  -0.27917 
 C                    -0.47651   0.51137  -0.27904 
 C                    -1.78467  -0.05243  -0.21939 
 C                    -0.22699  -1.79866  -0.26113 
 N                    -1.59568  -1.41641  -0.18864 
 O                    -0.15073   2.95574  -0.31644 
 O                     0.15073  -2.95569  -0.31715 
 H                    -2.32447  -2.10028  -0.34142 
 H                     2.32447   2.10034  -0.34095 
 C                     5.55551  -0.60703  -0.0349 
 C                     4.30021   0.10682   0.15017 
 C                     3.06416  -0.57925  -0.19216 
 C                     3.14339  -1.93031  -0.57983 
 H                     2.22772  -2.47261  -0.79134 
 C                     4.36924  -2.60175  -0.73201 
 H                     4.36574  -3.63634  -1.05699 
 C                     5.56582  -1.95088  -0.4905 
 H                     6.51271  -2.46497  -0.62589 
 C                     4.52016   1.36553   0.68981 
 H                     3.81152   2.10212   1.03801 
 C                     6.66064   0.15083   0.33994 
 H                     7.70266  -0.13714   0.30343 
 S                     6.19778   1.68017   0.93599 
 C                    -4.30021  -0.10685   0.15023 
 C                    -5.55551   0.60705  -0.03466 
 C                    -5.56581   1.951    -0.48996 
 H                    -6.5127    2.46513  -0.62522 
 C                    -4.36923   2.60192  -0.73134 
 H                    -4.36573   3.63658  -1.05608 
 C                    -3.14338   1.93043  -0.57932 
 H                    -2.22772   2.47277  -0.79072 
 C                    -3.06416   0.57928  -0.19196 
 C                    -6.66063  -0.15088   0.34002 
 H                    -7.70265   0.1371    0.30359 
 C                    -4.52017  -1.36568   0.68961 
 H                    -3.81153  -2.10235   1.03764 
 S                    -6.19778  -1.68037   0.93573 
 

 GradGradGradGradGradGradGradGradGradGradGradGradGradGradGradGradGradGrad
 Berny optimization.
 Initialization pass.
                           ----------------------------
                           !    Initial Parameters    !
                           ! (Angstroms and Degrees)  !
 --------------------------                            --------------------------
 ! Name  Definition              Value          Derivative Info.                !
 --------------------------------------------------------------------------------
 ! R1    R(1,2)                  1.4229         estimate D2E/DX2                !
 ! R2    R(1,3)                  1.3774         estimate D2E/DX2                !
 ! R3    R(1,12)                 1.011          estimate D2E/DX2                !
 ! R4    R(2,5)                  1.4671         estimate D2E/DX2                !
 ! R5    R(2,9)                  1.2184         estimate D2E/DX2                !
 ! R6    R(3,4)                  1.4257         estimate D2E/DX2                !
 ! R7    R(3,15)                 1.4272         estimate D2E/DX2                !
 ! R8    R(4,5)                  1.3979         estimate D2E/DX2                !
 ! R9    R(4,7)                  1.4671         estimate D2E/DX2                !
 ! R10   R(5,6)                  1.4257         estimate D2E/DX2                !
 ! R11   R(6,8)                  1.3774         estimate D2E/DX2                !
 ! R12   R(6,35)                 1.4272         estimate D2E/DX2                !
 ! R13   R(7,8)                  1.4229         estimate D2E/DX2                !
 ! R14   R(7,10)                 1.2184         estimate D2E/DX2                !
 ! R15   R(8,11)                 1.011          estimate D2E/DX2                !
 ! R16   R(13,14)                1.4559         estimate D2E/DX2                !
 ! R17   R(13,20)                1.419          estimate D2E/DX2                !
 ! R18   R(13,24)                1.3915         estimate D2E/DX2                !
 ! R19   R(14,15)                1.4545         estimate D2E/DX2                !
 ! R20   R(14,22)                1.3871         estimate D2E/DX2                !
 ! R21   R(15,16)                1.4078         estimate D2E/DX2                !
 ! R22   R(16,17)                1.085          estimate D2E/DX2                !
 ! R23   R(16,18)                1.406          estimate D2E/DX2                !
 ! R24   R(18,19)                1.0844         estimate D2E/DX2                !
 ! R25   R(18,20)                1.3834         estimate D2E/DX2                !
 ! R26   R(20,21)                1.0859         estimate D2E/DX2                !
 ! R27   R(22,23)                1.0798         estimate D2E/DX2                !
 ! R28   R(22,26)                1.7245         estimate D2E/DX2                !
 ! R29   R(24,25)                1.0817         estimate D2E/DX2                !
 ! R30   R(24,26)                1.7054         estimate D2E/DX2                !
 ! R31   R(27,28)                1.4559         estimate D2E/DX2                !
 ! R32   R(27,35)                1.4545         estimate D2E/DX2                !
 ! R33   R(27,38)                1.3871         estimate D2E/DX2                !
 ! R34   R(28,29)                1.419          estimate D2E/DX2                !
 ! R35   R(28,36)                1.3915         estimate D2E/DX2                !
 ! R36   R(29,30)                1.0859         estimate D2E/DX2                !
 ! R37   R(29,31)                1.3834         estimate D2E/DX2                !
 ! R38   R(31,32)                1.0844         estimate D2E/DX2                !
 ! R39   R(31,33)                1.406          estimate D2E/DX2                !
 ! R40   R(33,34)                1.085          estimate D2E/DX2                !
 ! R41   R(33,35)                1.4078         estimate D2E/DX2                !
 ! R42   R(36,37)                1.0817         estimate D2E/DX2                !
 ! R43   R(36,40)                1.7054         estimate D2E/DX2                !
 ! R44   R(38,39)                1.0798         estimate D2E/DX2                !
 ! R45   R(38,40)                1.7245         estimate D2E/DX2                !
 ! A1    A(2,1,3)              113.3828         estimate D2E/DX2                !
 ! A2    A(2,1,12)             120.2635         estimate D2E/DX2                !
 ! A3    A(3,1,12)             124.5804         estimate D2E/DX2                !
 ! A4    A(1,2,5)              103.0702         estimate D2E/DX2                !
 ! A5    A(1,2,9)              123.7544         estimate D2E/DX2                !
 ! A6    A(5,2,9)              133.1599         estimate D2E/DX2                !
 ! A7    A(1,3,4)              105.4649         estimate D2E/DX2                !
 ! A8    A(1,3,15)             124.1183         estimate D2E/DX2                !
 ! A9    A(4,3,15)             130.4168         estimate D2E/DX2                !
 ! A10   A(3,4,5)              109.6467         estimate D2E/DX2                !
 ! A11   A(3,4,7)              141.8528         estimate D2E/DX2                !
 ! A12   A(5,4,7)              108.363          estimate D2E/DX2                !
 ! A13   A(2,5,4)              108.363          estimate D2E/DX2                !
 ! A14   A(2,5,6)              141.8528         estimate D2E/DX2                !
 ! A15   A(4,5,6)              109.6468         estimate D2E/DX2                !
 ! A16   A(5,6,8)              105.4648         estimate D2E/DX2                !
 ! A17   A(5,6,35)             130.4167         estimate D2E/DX2                !
 ! A18   A(8,6,35)             124.1185         estimate D2E/DX2                !
 ! A19   A(4,7,8)              103.0701         estimate D2E/DX2                !
 ! A20   A(4,7,10)             133.1599         estimate D2E/DX2                !
 ! A21   A(8,7,10)             123.7545         estimate D2E/DX2                !
 ! A22   A(6,8,7)              113.3828         estimate D2E/DX2                !
 ! A23   A(6,8,11)             124.5804         estimate D2E/DX2                !
 ! A24   A(7,8,11)             120.2633         estimate D2E/DX2                !
 ! A25   A(14,13,20)           120.7587         estimate D2E/DX2                !
 ! A26   A(14,13,24)           112.5506         estimate D2E/DX2                !
 ! A27   A(20,13,24)           126.6212         estimate D2E/DX2                !
 ! A28   A(13,14,15)           118.1329         estimate D2E/DX2                !
 ! A29   A(13,14,22)           110.9574         estimate D2E/DX2                !
 ! A30   A(15,14,22)           130.87           estimate D2E/DX2                !
 ! A31   A(3,15,14)            123.8871         estimate D2E/DX2                !
 ! A32   A(3,15,16)            118.0325         estimate D2E/DX2                !
 ! A33   A(14,15,16)           118.0113         estimate D2E/DX2                !
 ! A34   A(15,16,17)           119.068          estimate D2E/DX2                !
 ! A35   A(15,16,18)           122.4928         estimate D2E/DX2                !
 ! A36   A(17,16,18)           118.4255         estimate D2E/DX2                !
 ! A37   A(16,18,19)           119.0284         estimate D2E/DX2                !
 ! A38   A(16,18,20)           120.7018         estimate D2E/DX2                !
 ! A39   A(19,18,20)           120.2633         estimate D2E/DX2                !
 ! A40   A(13,20,18)           119.6919         estimate D2E/DX2                !
 ! A41   A(13,20,21)           119.6501         estimate D2E/DX2                !
 ! A42   A(18,20,21)           120.6451         estimate D2E/DX2                !
 ! A43   A(14,22,23)           129.8227         estimate D2E/DX2                !
 ! A44   A(14,22,26)           112.0471         estimate D2E/DX2                !
 ! A45   A(23,22,26)           117.8996         estimate D2E/DX2                !
 ! A46   A(13,24,25)           127.662          estimate D2E/DX2                !
 ! A47   A(13,24,26)           111.532          estimate D2E/DX2                !
 ! A48   A(25,24,26)           120.7959         estimate D2E/DX2                !
 ! A49   A(22,26,24)            92.8954         estimate D2E/DX2                !
 ! A50   A(28,27,35)           118.1328         estimate D2E/DX2                !
 ! A51   A(28,27,38)           110.9573         estimate D2E/DX2                !
 ! A52   A(35,27,38)           130.8702         estimate D2E/DX2                !
 ! A53   A(27,28,29)           120.7587         estimate D2E/DX2                !
 ! A54   A(27,28,36)           112.5507         estimate D2E/DX2                !
 ! A55   A(29,28,36)           126.621          estimate D2E/DX2                !
 ! A56   A(28,29,30)           119.65           estimate D2E/DX2                !
 ! A57   A(28,29,31)           119.6919         estimate D2E/DX2                !
 ! A58   A(30,29,31)           120.6452         estimate D2E/DX2                !
 ! A59   A(29,31,32)           120.2634         estimate D2E/DX2                !
 ! A60   A(29,31,33)           120.7018         estimate D2E/DX2                !
 ! A61   A(32,31,33)           119.0284         estimate D2E/DX2                !
 ! A62   A(31,33,34)           118.4255         estimate D2E/DX2                !
 ! A63   A(31,33,35)           122.4928         estimate D2E/DX2                !
 ! A64   A(34,33,35)           119.068          estimate D2E/DX2                !
 ! A65   A(6,35,27)            123.8874         estimate D2E/DX2                !
 ! A66   A(6,35,33)            118.0323         estimate D2E/DX2                !
 ! A67   A(27,35,33)           118.0113         estimate D2E/DX2                !
 ! A68   A(28,36,37)           127.6621         estimate D2E/DX2                !
 ! A69   A(28,36,40)           111.5319         estimate D2E/DX2                !
 ! A70   A(37,36,40)           120.7958         estimate D2E/DX2                !
 ! A71   A(27,38,39)           129.8228         estimate D2E/DX2                !
 ! A72   A(27,38,40)           112.0472         estimate D2E/DX2                !
 ! A73   A(39,38,40)           117.8995         estimate D2E/DX2                !
 ! A74   A(36,40,38)            92.8954         estimate D2E/DX2                !
 ! D1    D(3,1,2,5)              2.6158         estimate D2E/DX2                !
 ! D2    D(3,1,2,9)           -176.1209         estimate D2E/DX2                !
 ! D3    D(12,1,2,5)           168.1287         estimate D2E/DX2                !
 ! D4    D(12,1,2,9)           -10.608          estimate D2E/DX2                !
 ! D5    D(2,1,3,4)             -1.6038         estimate D2E/DX2                !
 ! D6    D(2,1,3,15)           178.4607         estimate D2E/DX2                !
 ! D7    D(12,1,3,4)          -166.3893         estimate D2E/DX2                !
 ! D8    D(12,1,3,15)           13.6752         estimate D2E/DX2                !
 ! D9    D(1,2,5,4)             -2.5957         estimate D2E/DX2                !
 ! D10   D(1,2,5,6)            172.3745         estimate D2E/DX2                !
 ! D11   D(9,2,5,4)            175.9643         estimate D2E/DX2                !
 ! D12   D(9,2,5,6)             -9.0654         estimate D2E/DX2                !
 ! D13   D(1,3,4,5)             -0.1855         estimate D2E/DX2                !
 ! D14   D(1,3,4,7)           -175.1167         estimate D2E/DX2                !
 ! D15   D(15,3,4,5)           179.7443         estimate D2E/DX2                !
 ! D16   D(15,3,4,7)             4.8132         estimate D2E/DX2                !
 ! D17   D(1,3,15,14)           13.4033         estimate D2E/DX2                !
 ! D18   D(1,3,15,16)         -163.5085         estimate D2E/DX2                !
 ! D19   D(4,3,15,14)         -166.5151         estimate D2E/DX2                !
 ! D20   D(4,3,15,16)           16.5731         estimate D2E/DX2                !
 ! D21   D(3,4,5,2)              1.8002         estimate D2E/DX2                !
 ! D22   D(3,4,5,6)           -174.9034         estimate D2E/DX2                !
 ! D23   D(7,4,5,2)            178.5038         estimate D2E/DX2                !
 ! D24   D(7,4,5,6)              1.8002         estimate D2E/DX2                !
 ! D25   D(3,4,7,8)            172.3753         estimate D2E/DX2                !
 ! D26   D(3,4,7,10)            -9.0671         estimate D2E/DX2                !
 ! D27   D(5,4,7,8)             -2.5949         estimate D2E/DX2                !
 ! D28   D(5,4,7,10)           175.9627         estimate D2E/DX2                !
 ! D29   D(2,5,6,8)           -175.1175         estimate D2E/DX2                !
 ! D30   D(2,5,6,35)             4.8136         estimate D2E/DX2                !
 ! D31   D(4,5,6,8)             -0.1863         estimate D2E/DX2                !
 ! D32   D(4,5,6,35)           179.7448         estimate D2E/DX2                !
 ! D33   D(5,6,8,7)             -1.6025         estimate D2E/DX2                !
 ! D34   D(5,6,8,11)          -166.3879         estimate D2E/DX2                !
 ! D35   D(35,6,8,7)           178.4609         estimate D2E/DX2                !
 ! D36   D(35,6,8,11)           13.6754         estimate D2E/DX2                !
 ! D37   D(5,6,35,27)         -166.5154         estimate D2E/DX2                !
 ! D38   D(5,6,35,33)           16.5727         estimate D2E/DX2                !
 ! D39   D(8,6,35,27)           13.4044         estimate D2E/DX2                !
 ! D40   D(8,6,35,33)         -163.5075         estimate D2E/DX2                !
 ! D41   D(4,7,8,6)              2.6145         estimate D2E/DX2                !
 ! D42   D(4,7,8,11)           168.1274         estimate D2E/DX2                !
 ! D43   D(10,7,8,6)          -176.1201         estimate D2E/DX2                !
 ! D44   D(10,7,8,11)          -10.6072         estimate D2E/DX2                !
 ! D45   D(20,13,14,15)         -2.2474         estimate D2E/DX2                !
 ! D46   D(20,13,14,22)        175.7092         estimate D2E/DX2                !
 ! D47   D(24,13,14,15)       -179.4088         estimate D2E/DX2                !
 ! D48   D(24,13,14,22)         -1.4522         estimate D2E/DX2                !
 ! D49   D(14,13,20,18)         -1.5296         estimate D2E/DX2                !
 ! D50   D(14,13,20,21)        179.7665         estimate D2E/DX2                !
 ! D51   D(24,13,20,18)        175.2036         estimate D2E/DX2                !
 ! D52   D(24,13,20,21)         -3.5004         estimate D2E/DX2                !
 ! D53   D(14,13,24,25)       -179.9352         estimate D2E/DX2                !
 ! D54   D(14,13,24,26)          1.2324         estimate D2E/DX2                !
 ! D55   D(20,13,24,25)          3.1042         estimate D2E/DX2                !
 ! D56   D(20,13,24,26)       -175.7281         estimate D2E/DX2                !
 ! D57   D(13,14,15,3)        -171.86           estimate D2E/DX2                !
 ! D58   D(13,14,15,16)          5.0524         estimate D2E/DX2                !
 ! D59   D(22,14,15,3)          10.6637         estimate D2E/DX2                !
 ! D60   D(22,14,15,16)       -172.4239         estimate D2E/DX2                !
 ! D61   D(13,14,22,23)       -173.2509         estimate D2E/DX2                !
 ! D62   D(13,14,22,26)          1.0224         estimate D2E/DX2                !
 ! D63   D(15,14,22,23)          4.366          estimate D2E/DX2                !
 ! D64   D(15,14,22,26)        178.6393         estimate D2E/DX2                !
 ! D65   D(3,15,16,17)          -5.9068         estimate D2E/DX2                !
 ! D66   D(3,15,16,18)         172.7254         estimate D2E/DX2                !
 ! D67   D(14,15,16,17)        176.9969         estimate D2E/DX2                !
 ! D68   D(14,15,16,18)         -4.371          estimate D2E/DX2                !
 ! D69   D(15,16,18,19)       -178.4959         estimate D2E/DX2                !
 ! D70   D(15,16,18,20)          0.584          estimate D2E/DX2                !
 ! D71   D(17,16,18,19)          0.1446         estimate D2E/DX2                !
 ! D72   D(17,16,18,20)        179.2245         estimate D2E/DX2                !
 ! D73   D(16,18,20,13)          2.4366         estimate D2E/DX2                !
 ! D74   D(16,18,20,21)       -178.8725         estimate D2E/DX2                !
 ! D75   D(19,18,20,13)       -178.4948         estimate D2E/DX2                !
 ! D76   D(19,18,20,21)          0.196          estimate D2E/DX2                !
 ! D77   D(14,22,26,24)         -0.2957         estimate D2E/DX2                !
 ! D78   D(23,22,26,24)        174.7297         estimate D2E/DX2                !
 ! D79   D(13,24,26,22)         -0.5534         estimate D2E/DX2                !
 ! D80   D(25,24,26,22)       -179.4774         estimate D2E/DX2                !
 ! D81   D(35,27,28,29)         -2.2477         estimate D2E/DX2                !
 ! D82   D(35,27,28,36)       -179.4088         estimate D2E/DX2                !
 ! D83   D(38,27,28,29)        175.7087         estimate D2E/DX2                !
 ! D84   D(38,27,28,36)         -1.4525         estimate D2E/DX2                !
 ! D85   D(28,27,35,6)        -171.8597         estimate D2E/DX2                !
 ! D86   D(28,27,35,33)          5.0528         estimate D2E/DX2                !
 ! D87   D(38,27,35,6)          10.6643         estimate D2E/DX2                !
 ! D88   D(38,27,35,33)       -172.4232         estimate D2E/DX2                !
 ! D89   D(28,27,38,39)       -173.2503         estimate D2E/DX2                !
 ! D90   D(28,27,38,40)          1.0229         estimate D2E/DX2                !
 ! D91   D(35,27,38,39)          4.3662         estimate D2E/DX2                !
 ! D92   D(35,27,38,40)        178.6395         estimate D2E/DX2                !
 ! D93   D(27,28,29,30)        179.7665         estimate D2E/DX2                !
 ! D94   D(27,28,29,31)         -1.5295         estimate D2E/DX2                !
 ! D95   D(36,28,29,30)         -3.5005         estimate D2E/DX2                !
 ! D96   D(36,28,29,31)        175.2035         estimate D2E/DX2                !
 ! D97   D(27,28,36,37)       -179.9353         estimate D2E/DX2                !
 ! D98   D(27,28,36,40)          1.2324         estimate D2E/DX2                !
 ! D99   D(29,28,36,37)          3.1044         estimate D2E/DX2                !
 ! D100  D(29,28,36,40)       -175.728          estimate D2E/DX2                !
 ! D101  D(28,29,31,32)       -178.4948         estimate D2E/DX2                !
 ! D102  D(28,29,31,33)          2.4366         estimate D2E/DX2                !
 ! D103  D(30,29,31,32)          0.196          estimate D2E/DX2                !
 ! D104  D(30,29,31,33)       -178.8725         estimate D2E/DX2                !
 ! D105  D(29,31,33,34)        179.2245         estimate D2E/DX2                !
 ! D106  D(29,31,33,35)          0.5842         estimate D2E/DX2                !
 ! D107  D(32,31,33,34)          0.1446         estimate D2E/DX2                !
 ! D108  D(32,31,33,35)       -178.4957         estimate D2E/DX2                !
 ! D109  D(31,33,35,6)         172.7251         estimate D2E/DX2                !
 ! D110  D(31,33,35,27)         -4.3714         estimate D2E/DX2                !
 ! D111  D(34,33,35,6)          -5.9068         estimate D2E/DX2                !
 ! D112  D(34,33,35,27)        176.9967         estimate D2E/DX2                !
 ! D113  D(28,36,40,38)         -0.5531         estimate D2E/DX2                !
 ! D114  D(37,36,40,38)       -179.4771         estimate D2E/DX2                !
 ! D115  D(27,38,40,36)         -0.2961         estimate D2E/DX2                !
 ! D116  D(39,38,40,36)        174.7292         estimate D2E/DX2                !
 --------------------------------------------------------------------------------
 Trust Radius=3.00D-01 FncErr=1.00D-07 GrdErr=1.00D-06
 Number of steps in this run= 240 maximum allowed number of steps= 240.
 GradGradGradGradGradGradGradGradGradGradGradGradGradGradGradGradGradGrad

                          Input orientation:                          
 ---------------------------------------------------------------------
 Center     Atomic      Atomic             Coordinates (Angstroms)
 Number     Number       Type             X           Y           Z
 ---------------------------------------------------------------------
      1          7           0        1.595676    1.416439   -0.188329
      2          6           0        0.226983    1.798699   -0.260718
      3          6           0        1.784666    0.052468   -0.219417
      4          6           0        0.476506   -0.511325   -0.279167
      5          6           0       -0.476509    0.511370   -0.279038
      6          6           0       -1.784668   -0.052434   -0.219387
      7          6           0       -0.226985   -1.798658   -0.261126
      8          7           0       -1.595678   -1.416413   -0.188635
      9          8           0       -0.150731    2.955743   -0.316443
     10          8           0        0.150726   -2.955688   -0.317151
     11          1           0       -2.324467   -2.100276   -0.341418
     12          1           0        2.324465    2.100339   -0.340948
     13          6           0        5.555509   -0.607034   -0.034895
     14          6           0        4.300206    0.106817    0.150171
     15          6           0        3.064163   -0.579247   -0.192158
     16          6           0        3.143389   -1.930306   -0.579829
     17          1           0        2.227725   -2.472607   -0.791338
     18          6           0        4.369243   -2.601751   -0.732013
     19          1           0        4.365743   -3.636343   -1.056987
     20          6           0        5.565819   -1.950880   -0.490501
     21          1           0        6.512708   -2.464968   -0.625891
     22          6           0        4.520161    1.365529    0.689814
     23          1           0        3.811518    2.102119    1.038012
     24          6           0        6.660635    0.150829    0.339936
     25          1           0        7.702658   -0.137139    0.303427
     26         16           0        6.197779    1.680174    0.935994
     27          6           0       -4.300206   -0.106851    0.150234
     28          6           0       -5.555505    0.607053   -0.034655
     29          6           0       -5.565810    1.951002   -0.489957
     30          1           0       -6.512697    2.465128   -0.625218
     31          6           0       -4.369233    2.601917   -0.731338
     32          1           0       -4.365728    3.636583   -1.056079
     33          6           0       -3.143382    1.930428   -0.579322
     34          1           0       -2.227716    2.472770   -0.790722
     35          6           0       -3.064162    0.579280   -0.191961
     36          6           0       -6.660634   -0.150882    0.340022
     37          1           0       -7.702654    0.137103    0.303593
     38          6           0       -4.520166   -1.365678    0.689606
     39          1           0       -3.811527   -2.102349    1.037640
     40         16           0       -6.197784   -1.680365    0.935732
 ---------------------------------------------------------------------
                    Distance matrix (angstroms):
                    1          2          3          4          5
     1  N    0.000000
     2  C    1.422914   0.000000
     3  C    1.377353   2.340386   0.000000
     4  C    2.230934   2.323535   1.425733   0.000000
     5  C    2.263035   1.467124   2.308042   1.397907   0.000000
     6  C    3.685821   2.734070   3.570875   2.308043   1.425732
     7  C    3.696517   3.625888   2.734071   1.467123   2.323534
     8  N    4.267293   3.696517   3.685822   2.263035   2.230932
     9  O    2.331482   1.218410   3.490585   3.523546   2.466270
    10  O    4.606514   4.755333   3.424663   2.466270   3.523545
    11  H    5.268609   4.660302   4.640492   3.220883   3.199927
    12  H    1.011012   2.120579   2.121303   3.199931   3.220887
    13  C    4.449524   5.850789   3.832525   5.085774   6.139680
    14  C    3.023934   4.429722   2.543126   3.897065   4.812992
    15  C    2.477747   3.702556   1.427207   2.590010   3.705854
    16  C    3.708017   4.744759   2.430518   3.035814   4.376747
    17  H    3.985948   4.746428   2.626671   2.678752   4.059489
    18  C    4.912649   6.061716   3.740010   4.441661   5.777371
    19  H    5.827387   6.877722   4.579390   5.049446   6.423094
    20  C    5.214612   6.528040   4.287658   5.293211   6.528179
    21  H    6.279648   7.604114   5.371879   6.353949   7.604476
    22  C    3.053906   4.418430   3.167612   4.562088   5.160908
    23  H    2.623743   3.824612   3.144889   4.437044   4.759441
    24  C    5.247346   6.668444   4.908933   6.250215   7.173001
    25  H    6.320653   7.742832   5.944068   7.259250   8.225485
    26  S    4.744788   6.090696   4.843549   6.245979   6.883932
    27  C    6.098890   4.929041   6.098171   4.812999   3.897067
    28  C    7.198480   5.908324   7.363410   6.139683   5.085772
    29  C    7.187741   5.799327   7.596520   6.528175   5.293204
    30  H    8.187572   6.782350   8.650540   7.604471   6.353942
    31  C    6.105764   4.689546   6.680735   5.777363   4.441651
    32  H    6.420309   5.010330   7.167512   6.423081   5.049433
    33  C    4.782858   3.387952   5.286012   4.376738   3.035804
    34  H    4.012112   2.600158   4.720536   4.059474   2.678738
    35  C    4.734442   3.510462   4.877440   3.705854   2.590008
    36  C    8.420351   7.183385   8.466252   7.173011   6.250217
    37  H    9.398810   8.121483   9.502102   8.225492   7.259250
    38  C    6.776022   5.783755   6.525976   5.160927   4.562098
    39  H    6.566789   5.763113   6.127055   4.759471   4.437061
    40  S    8.461189   7.403581   8.249642   6.883951   6.245987
                    6          7          8          9         10
     6  C    0.000000
     7  C    2.340388   0.000000
     8  N    1.377353   1.422915   0.000000
     9  O    3.424660   4.755334   4.606512   0.000000
    10  O    3.490586   1.218410   2.331483   5.919113   0.000000
    11  H    2.121304   2.120578   1.011012   5.503552   2.618950
    12  H    4.640494   4.660305   5.268611   2.618952   5.503555
    13  C    7.363411   5.908332   7.198486   6.733040   5.899790
    14  C    6.098166   4.929042   6.098891   5.305181   5.178370
    15  C    4.877441   3.510466   4.734446   4.779869   3.761809
    16  C    5.286026   3.387967   4.782873   5.898650   3.174341
    17  H    4.720557   2.600179   4.012132   5.945550   2.184524
    18  C    6.680750   4.689563   6.105782   7.175556   4.253618
    19  H    7.167533   5.010352   6.420332   8.025119   4.333246
    20  C    7.596529   5.799342   7.187755   7.535528   5.510256
    21  H    8.650550   6.782366   8.187587   8.595422   6.388344
    22  C    6.525958   5.783750   6.776014   5.035729   6.227267
    23  H    6.127026   5.763100   6.566772   4.273481   6.388997
    24  C    8.466245   7.183389   8.420353   7.395477   7.243005
    25  H    9.502098   8.121490   9.398815   8.463207   8.084616
    26  S    8.249624   7.403578   8.461183   6.595396   7.721945
    27  C    2.543130   4.429736   3.023947   5.178360   5.305197
    28  C    3.832527   5.850800   4.449534   5.899774   6.733053
    29  C    4.287657   6.528045   5.214617   5.510235   7.535533
    30  H    5.371878   7.604118   6.279653   6.388322   8.595427
    31  C    3.740007   6.061714   4.912648   4.253597   7.175552
    32  H    4.579385   6.877717   5.827384   4.333221   8.025111
    33  C    2.430514   4.744755   3.708014   3.174325   5.898645
    34  H    2.626665   4.746419   3.985941   2.184507   5.945537
    35  C    1.427207   3.702559   2.477750   3.761802   4.779872
    36  C    4.908938   6.668462   5.247364   7.242990   7.395501
    37  H    5.944072   7.742849   6.320669   8.084598   8.463230
    38  C    3.167622   4.418457   3.053934   6.227261   5.035764
    39  H    3.144905   3.824652   2.623785   6.388995   4.273534
    40  S    4.843558   6.090723   4.744813   7.721936   6.595434
                   11         12         13         14         15
    11  H    0.000000
    12  H    6.265599   0.000000
    13  C    8.026067   4.226486   0.000000
    14  C    6.999944   2.849365   1.455891   0.000000
    15  C    5.601173   2.783787   2.496459   1.454536   0.000000
    16  C    5.475690   4.119927   2.804697   2.453772   1.407809
    17  H    4.589500   4.596090   3.889308   3.440210   2.154868
    18  C    6.723823   5.142344   2.423241   2.849448   2.466820
    19  H    6.901482   6.130991   3.411294   3.933544   3.433348
    20  C    7.893108   5.190483   1.419016   2.499271   2.868566
    21  H    8.849270   6.201984   2.171963   3.480160   3.954305
    22  C    7.741071   2.534462   2.342681   1.387065   2.584562
    23  H    7.563945   2.028019   3.395901   2.237925   3.043285
    24  C    9.287829   4.802766   1.391459   2.368454   3.708200
    25  H   10.237820   5.860588   2.223851   3.414628   4.685798
    26  S    9.410221   4.099961   2.566409   2.587229   4.024582
    27  C    2.849388   6.999944   9.870135   8.603066   7.387443
    28  C    4.226505   8.026060  11.177148   9.870128   8.702344
    29  C    5.190493   7.893095  11.420787  10.057289   8.998182
    30  H    6.201994   8.849255  12.467087  11.094221  10.058430
    31  C    5.142346   6.723807  10.453846   9.064312   8.103450
    32  H    6.130990   6.901459  10.838913   9.434654   8.586202
    33  C    4.119927   5.475677   9.077765   7.698358   6.706861
    34  H    4.596084   4.589483   8.404467   7.006909   6.138165
    35  C    2.783794   5.601171   8.702341   7.387435   6.236870
    36  C    4.802795   9.287826  12.230404  10.965513   9.748763
    37  H    5.860614  10.237814  13.283343  12.003879  10.802003
    38  C    2.534510   7.741078  10.130137   8.958694   7.675808
    39  H    2.028091   7.563960   9.546081   8.453888   7.148941
    40  S    4.100003   9.410226  11.842046  10.677964   9.395119
                   16         17         18         19         20
    16  C    0.000000
    17  H    1.085019   0.000000
    18  C    1.405957   2.146229   0.000000
    19  H    2.152299   2.448667   1.084436   0.000000
    20  C    2.424164   3.391987   1.383385   2.145198   0.000000
    21  H    3.411788   4.288183   2.150445   2.483429   1.085917
    22  C    3.790781   4.709603   4.217070   5.300366   3.672208
    23  H    4.395936   5.175233   5.056722   6.134014   4.673406
    24  C    4.189046   5.273793   3.738482   4.643339   2.511061
    25  H    4.978205   6.052092   4.272950   5.022963   2.913084
    26  S    4.966144   5.999216   4.945773   5.966044   3.952065
    27  C    7.698382   7.006942   9.064338   9.434690  10.057307
    28  C    9.077784   8.404495  10.453868  10.838945  11.420800
    29  C    9.535344   8.966512  10.931214  11.409456  11.795671
    30  H   10.609519  10.040110  12.004220  12.480177  12.861175
    31  C    8.775163   8.323115  10.170503  10.738796  10.931204
    32  H    9.359696   8.992548  10.738787  11.363716  11.409437
    33  C    7.377585   6.948414   8.775164   9.359704   9.535335
    34  H    6.948404   6.656404   8.323105   8.992545   8.966493
    35  C    6.706874   6.138187   8.103464   8.586224   8.998189
    36  C   10.006565   9.255988  11.349635  11.648221  12.386118
    37  H   11.076609  10.325787  12.421936  12.717558  13.455208
    38  C    7.788475   6.996608   9.086829   9.336267  10.171637
    39  H    7.142595   6.320982   8.384872   8.579531   9.502251
    40  S    9.466621   8.637107  10.737429  10.926339  11.852834
                   21         22         23         24         25
    21  H    0.000000
    22  C    4.513760   0.000000
    23  H    5.560871   1.079806   0.000000
    24  C    2.792328   2.485868   3.523111   0.000000
    25  H    2.774599   3.540564   4.549161   1.081698   0.000000
    26  S    4.440818   1.724531   2.425425   1.705408   2.442832
    27  C   11.094242   8.958679   8.453861  10.965511  12.003880
    28  C   12.467102  10.130113   9.546044  12.230394  13.283336
    29  C   12.861177  10.171600   9.502200  12.386093  13.455186
    30  H   13.927204  11.165231  10.463629  13.409854  14.481384
    31  C   12.004211   9.086785   8.384813  11.349601  12.421905
    32  H   12.480158   9.336212   8.579461  11.648177  12.717514
    33  C   10.609512   7.788434   7.142540  10.006536  11.076582
    34  H   10.040092   6.996557   6.320917   9.255948  10.325750
    35  C   10.058438   7.675785   7.148905   9.748752  10.801994
    36  C   13.409881  11.288580  10.734485  13.324685  14.363345
    37  H   14.481410  12.290460  11.703709  14.363342  15.407753
    38  C   11.165271   9.443887   9.031277  11.288595  12.290479
    39  H   10.463683   9.031289   8.705651  10.734513  11.703742
    40  S   12.830077  11.145057  10.700644  13.001815  14.000130
                   26         27         28         29         30
    26  S    0.000000
    27  C   10.677948   0.000000
    28  C   11.842020   1.455891   0.000000
    29  C   11.852793   2.499271   1.419016   0.000000
    30  H   12.830033   3.480161   2.171963   1.085917   0.000000
    31  C   10.737381   2.849449   2.423240   1.383384   2.150444
    32  H   10.926279   3.933546   3.411294   2.145198   2.483430
    33  C    9.466578   2.453772   2.804696   2.424163   3.411788
    34  H    8.637055   3.440212   3.889308   3.391987   4.288183
    35  C    9.395095   1.454537   2.496459   2.868565   3.954305
    36  C   13.001797   2.368455   1.391459   2.511060   2.792326
    37  H   14.000108   3.414628   2.223851   2.913083   2.774597
    38  C   11.145056   1.387065   2.342680   3.672207   4.513759
    39  H   10.700655   2.237925   3.395900   4.673405   5.560869
    40  S   12.843022   2.587229   2.566409   3.952064   4.440816
                   31         32         33         34         35
    31  C    0.000000
    32  H    1.084437   0.000000
    33  C    1.405958   2.152299   0.000000
    34  H    2.146229   2.448667   1.085020   0.000000
    35  C    2.466819   3.433348   1.407809   2.154869   0.000000
    36  C    3.738480   4.643337   4.189046   5.273793   3.708201
    37  H    4.272948   5.022962   4.978204   6.052092   4.685798
    38  C    4.217069   5.300366   3.790782   4.709605   2.584564
    39  H    5.056722   6.134015   4.395938   5.175237   3.043289
    40  S    4.945772   5.966044   4.966144   5.999218   4.024584
                   36         37         38         39         40
    36  C    0.000000
    37  H    1.081697   0.000000
    38  C    2.485868   3.540563   0.000000
    39  H    3.523110   4.549158   1.079806   0.000000
    40  S    1.705409   2.442831   1.724531   2.425423   0.000000
 Symmetry turned off by external request.
 Stoichiometry    C22H12N2O2S2(1+,2)
 Framework group  C1[X(C22H12N2O2S2)]
 Deg. of freedom   114
 Full point group                 C1      NOp   1
 Rotational constants (GHZ):      0.4251789      0.0680799      0.0602803
 Standard basis: 6-31+G(d,p) (6D, 7F)
 Integral buffers will be    131072 words long.
 Raffenetti 2 integral format.
 Two-electron integral symmetry is turned off.
   600 basis functions,  1028 primitive gaussians,   600 cartesian basis functions
   103 alpha electrons      102 beta electrons
       nuclear repulsion energy      2590.7268187193 Hartrees.
 NAtoms=   40 NActive=   40 NUniq=   40 SFac= 7.50D-01 NAtFMM=   80 NAOKFM=F Big=F
 One-electron integrals computed using PRISM.
 NBasis=   600 RedAO= T  NBF=   600
 NBsUse=   590 1.00D-06 NBFU=   590
 Harris functional with IExCor=  402 diagonalized for initial guess.
 ExpMin= 4.05D-02 ExpMax= 2.19D+04 ExpMxC= 3.30D+03 IAcc=2 IRadAn=         0 AccDes= 0.00D+00
 HarFok:  IExCor=  402 AccDes= 0.00D+00 IRadAn=         0 IDoV= 1
 ScaDFX=  1.000000  1.000000  1.000000  1.000000
 FoFCou: FMM=F IPFlag=           0 FMFlag=      100000 FMFlg1=           0
         NFxFlg=           0 DoJE=T BraDBF=F KetDBF=T FulRan=T
         Omega=  0.000000  0.000000  1.000000  0.000000  0.000000 ICntrl=     500 IOpCl=  0
         NMat0=    1 NMatS0=    1 NMatT0=    0 NMatD0=    1 NMtDS0=    0 NMtDT0=    0
         I1Cent=           4 NGrid=           0.
 Symmetry not used in FoFCou.
 Initial guess <Sx>= 0.0000 <Sy>= 0.0000 <Sz>= 0.5000 <S**2>= 0.7500 S= 0.5000
 Requested convergence on RMS density matrix=1.00D-08 within 128 cycles.
 Requested convergence on MAX density matrix=1.00D-06.
 Requested convergence on             energy=1.00D-06.
 No special actions if energy rises.
 Restarting incremental Fock formation.
 SCF Done:  E(UB3LYP) =  -1901.71658908     A.U. after   25 cycles
             Convg  =    0.3344D-08             -V/T =  2.0069
 <Sx>= 0.0000 <Sy>= 0.0000 <Sz>= 0.5000 <S**2>= 0.7667 S= 0.5083
 <L.S>= 0.000000000000E+00
 Annihilation of the first spin contaminant:
 S**2 before annihilation     0.7667,   after     0.7502
 DiagDN has N=   600 LTot=  1832 but NE2=     3 cannot use DSYEVD.

 **********************************************************************

            Population analysis using the SCF density.

 **********************************************************************

 Alpha  occ. eigenvalues --  -89.05032 -89.05032 -19.27396 -19.27396 -14.52106
 Alpha  occ. eigenvalues --  -14.52106 -10.43845 -10.43845 -10.40876 -10.40876
 Alpha  occ. eigenvalues --  -10.35401 -10.35401 -10.35022 -10.35022 -10.34853
 Alpha  occ. eigenvalues --  -10.34853 -10.34465 -10.34410 -10.34241 -10.34241
 Alpha  occ. eigenvalues --  -10.34094 -10.34094 -10.33802 -10.33802 -10.33420
 Alpha  occ. eigenvalues --  -10.33420 -10.32155 -10.32155  -8.10901  -8.10900
 Alpha  occ. eigenvalues --   -6.07286  -6.07286  -6.06887  -6.06887  -6.06709
 Alpha  occ. eigenvalues --   -6.06709  -1.19061  -1.18587  -1.11824  -1.10374
 Alpha  occ. eigenvalues --   -1.02765  -1.02735  -0.97310  -0.97256  -0.95225
 Alpha  occ. eigenvalues --   -0.92605  -0.92132  -0.87251  -0.86983  -0.86819
 Alpha  occ. eigenvalues --   -0.85156  -0.82978  -0.81358  -0.81180  -0.76347
 Alpha  occ. eigenvalues --   -0.74847  -0.73087  -0.71979  -0.71334  -0.70655
 Alpha  occ. eigenvalues --   -0.69219  -0.67965  -0.66710  -0.65738  -0.62930
 Alpha  occ. eigenvalues --   -0.62084  -0.61754  -0.60396  -0.60387  -0.59864
 Alpha  occ. eigenvalues --   -0.59337  -0.58832  -0.57733  -0.56493  -0.56386
 Alpha  occ. eigenvalues --   -0.56222  -0.55660  -0.54678  -0.53764  -0.53685
 Alpha  occ. eigenvalues --   -0.53372  -0.53302  -0.52587  -0.50105  -0.49458
 Alpha  occ. eigenvalues --   -0.49316  -0.48916  -0.48801  -0.48506  -0.47332
 Alpha  occ. eigenvalues --   -0.47298  -0.46263  -0.46012  -0.42128  -0.41783
 Alpha  occ. eigenvalues --   -0.41409  -0.41174  -0.39815  -0.37907  -0.37879
 Alpha  occ. eigenvalues --   -0.35819  -0.34452  -0.31648
 Alpha virt. eigenvalues --   -0.23919  -0.20048  -0.17541  -0.14368  -0.11135
 Alpha virt. eigenvalues --   -0.11119  -0.10805  -0.10306  -0.10181  -0.09946
 Alpha virt. eigenvalues --   -0.09577  -0.08830  -0.07916  -0.07637  -0.07465
 Alpha virt. eigenvalues --   -0.06364  -0.06015  -0.05945  -0.05845  -0.05633
 Alpha virt. eigenvalues --   -0.05441  -0.04765  -0.04518  -0.04342  -0.03935
 Alpha virt. eigenvalues --   -0.03248  -0.02828  -0.02457  -0.02408  -0.02213
 Alpha virt. eigenvalues --   -0.02022  -0.01697  -0.01060  -0.00926  -0.00765
 Alpha virt. eigenvalues --   -0.00431   0.00337   0.00362   0.00607   0.00767
 Alpha virt. eigenvalues --    0.01398   0.01408   0.01728   0.01845   0.02370
 Alpha virt. eigenvalues --    0.02486   0.02801   0.03275   0.03742   0.04054
 Alpha virt. eigenvalues --    0.04318   0.04331   0.04751   0.04889   0.05308
 Alpha virt. eigenvalues --    0.05744   0.05937   0.06211   0.06665   0.06742
 Alpha virt. eigenvalues --    0.06824   0.06953   0.07399   0.07583   0.07633
 Alpha virt. eigenvalues --    0.07956   0.08106   0.08163   0.08658   0.09041
 Alpha virt. eigenvalues --    0.09151   0.09495   0.09515   0.09850   0.09975
 Alpha virt. eigenvalues --    0.10174   0.10219   0.10680   0.10805   0.11017
 Alpha virt. eigenvalues --    0.11151   0.11672   0.12077   0.12271   0.12654
 Alpha virt. eigenvalues --    0.12720   0.13269   0.13272   0.13368   0.13596
 Alpha virt. eigenvalues --    0.13878   0.14203   0.14928   0.14966   0.15097
 Alpha virt. eigenvalues --    0.15170   0.15955   0.15981   0.16184   0.16220
 Alpha virt. eigenvalues --    0.16550   0.16967   0.16983   0.17015   0.17501
 Alpha virt. eigenvalues --    0.17587   0.17978   0.18243   0.18579   0.18673
 Alpha virt. eigenvalues --    0.18706   0.19470   0.19667   0.19749   0.20057
 Alpha virt. eigenvalues --    0.20134   0.20619   0.20667   0.21459   0.21502
 Alpha virt. eigenvalues --    0.22014   0.22970   0.23055   0.23239   0.23422
 Alpha virt. eigenvalues --    0.24112   0.24645   0.24780   0.25097   0.25420
 Alpha virt. eigenvalues --    0.26449   0.26722   0.26781   0.27500   0.27889
 Alpha virt. eigenvalues --    0.29045   0.29553   0.29927   0.30778   0.31151
 Alpha virt. eigenvalues --    0.31171   0.32906   0.33282   0.34400   0.34660
 Alpha virt. eigenvalues --    0.35746   0.36356   0.37529   0.37679   0.37926
 Alpha virt. eigenvalues --    0.39138   0.40049   0.40195   0.40614   0.41892
 Alpha virt. eigenvalues --    0.42100   0.42451   0.44135   0.46223   0.46432
 Alpha virt. eigenvalues --    0.47897   0.48045   0.49433   0.50000   0.51021
 Alpha virt. eigenvalues --    0.51058   0.52471   0.53038   0.53327   0.53941
 Alpha virt. eigenvalues --    0.54403   0.54702   0.56016   0.56733   0.57546
 Alpha virt. eigenvalues --    0.57865   0.57872   0.58397   0.59416   0.59942
 Alpha virt. eigenvalues --    0.60572   0.60919   0.61119   0.62619   0.62893
 Alpha virt. eigenvalues --    0.62977   0.63233   0.63496   0.63937   0.64871
 Alpha virt. eigenvalues --    0.65178   0.65609   0.66314   0.66590   0.67342
 Alpha virt. eigenvalues --    0.68257   0.68319   0.69221   0.69518   0.70411
 Alpha virt. eigenvalues --    0.70806   0.71205   0.71673   0.72193   0.73554
 Alpha virt. eigenvalues --    0.73959   0.74394   0.74633   0.75763   0.76762
 Alpha virt. eigenvalues --    0.77842   0.78351   0.78985   0.79838   0.79886
 Alpha virt. eigenvalues --    0.81297   0.81530   0.82080   0.82468   0.83446
 Alpha virt. eigenvalues --    0.83872   0.84725   0.85754   0.86084   0.86226
 Alpha virt. eigenvalues --    0.87161   0.87411   0.87832   0.90105   0.90665
 Alpha virt. eigenvalues --    0.91508   0.92627   0.94437   0.95376   0.95570
 Alpha virt. eigenvalues --    0.96337   0.96613   0.97649   0.97895   0.98984
 Alpha virt. eigenvalues --    0.99156   1.01230   1.01305   1.01675   1.02186
 Alpha virt. eigenvalues --    1.02879   1.03755   1.04559   1.05448   1.06699
 Alpha virt. eigenvalues --    1.06863   1.07841   1.08046   1.09228   1.09651
 Alpha virt. eigenvalues --    1.10403   1.10626   1.10966   1.11910   1.12899
 Alpha virt. eigenvalues --    1.13362   1.13586   1.15164   1.16113   1.16163
 Alpha virt. eigenvalues --    1.16789   1.17395   1.17457   1.17992   1.18125
 Alpha virt. eigenvalues --    1.19426   1.20422   1.21731   1.21930   1.22060
 Alpha virt. eigenvalues --    1.22477   1.23154   1.23764   1.24524   1.24937
 Alpha virt. eigenvalues --    1.26195   1.26256   1.26898   1.26998   1.29521
 Alpha virt. eigenvalues --    1.29563   1.29774   1.30065   1.30250   1.30899
 Alpha virt. eigenvalues --    1.33219   1.33745   1.36177   1.37090   1.37331
 Alpha virt. eigenvalues --    1.38082   1.39985   1.41943   1.42173   1.44881
 Alpha virt. eigenvalues --    1.47318   1.49232   1.50765   1.51903   1.51996
 Alpha virt. eigenvalues --    1.53934   1.55023   1.56566   1.57691   1.59732
 Alpha virt. eigenvalues --    1.60017   1.60958   1.61217   1.63307   1.65338
 Alpha virt. eigenvalues --    1.65442   1.66120   1.67327   1.69216   1.69963
 Alpha virt. eigenvalues --    1.70461   1.71150   1.71990   1.72736   1.74258
 Alpha virt. eigenvalues --    1.74969   1.75371   1.76663   1.77563   1.77606
 Alpha virt. eigenvalues --    1.79015   1.80232   1.80301   1.82606   1.83399
 Alpha virt. eigenvalues --    1.83479   1.83735   1.84039   1.85570   1.86071
 Alpha virt. eigenvalues --    1.86893   1.88317   1.88978   1.89770   1.91295
 Alpha virt. eigenvalues --    1.92472   1.92839   1.93504   1.93662   1.96348
 Alpha virt. eigenvalues --    1.96869   1.97706   1.99736   2.00189   2.02233
 Alpha virt. eigenvalues --    2.02456   2.03067   2.05051   2.05484   2.06378
 Alpha virt. eigenvalues --    2.07174   2.08060   2.09893   2.10319   2.13196
 Alpha virt. eigenvalues --    2.13708   2.14409   2.15050   2.16391   2.16494
 Alpha virt. eigenvalues --    2.18362   2.18961   2.20064   2.20965   2.21210
 Alpha virt. eigenvalues --    2.22514   2.22670   2.23750   2.26274   2.26573
 Alpha virt. eigenvalues --    2.28849   2.28895   2.28986   2.30137   2.30404
 Alpha virt. eigenvalues --    2.31603   2.34700   2.36461   2.36598   2.36821
 Alpha virt. eigenvalues --    2.37628   2.37690   2.39412   2.41037   2.42090
 Alpha virt. eigenvalues --    2.43032   2.43840   2.44424   2.44454   2.45186
 Alpha virt. eigenvalues --    2.45499   2.46808   2.46899   2.47804   2.48432
 Alpha virt. eigenvalues --    2.49056   2.49805   2.52638   2.52651   2.53291
 Alpha virt. eigenvalues --    2.53678   2.55479   2.55704   2.57362   2.59677
 Alpha virt. eigenvalues --    2.59997   2.61189   2.61219   2.62314   2.62372
 Alpha virt. eigenvalues --    2.65710   2.66971   2.70514   2.72555   2.74392
 Alpha virt. eigenvalues --    2.75069   2.75704   2.78243   2.80599   2.82360
 Alpha virt. eigenvalues --    2.85576   2.87061   2.89020   2.91776   2.92509
 Alpha virt. eigenvalues --    2.93563   2.96079   2.98040   3.01549   3.07504
 Alpha virt. eigenvalues --    3.08586   3.12969   3.13557   3.16450   3.17927
 Alpha virt. eigenvalues --    3.18236   3.19124   3.24808   3.29703   3.30321
 Alpha virt. eigenvalues --    3.31548   3.32470   3.33013   3.41029   3.41210
 Alpha virt. eigenvalues --    3.44951   3.45908   3.67838   3.68023   3.86480
 Alpha virt. eigenvalues --    3.86704   4.12008   4.15683   4.15979   4.18288
 Alpha virt. eigenvalues --    4.19361   4.21313   4.21498   4.21574   4.24166
 Alpha virt. eigenvalues --    4.24788   4.27077   4.27291   4.30587   4.31914
 Alpha virt. eigenvalues --    4.33742   4.37352   4.40325   4.43633   4.44195
 Alpha virt. eigenvalues --    4.47192   4.55646   4.63167   4.75862   4.75995
 Alpha virt. eigenvalues --    4.88023   4.95152
  Beta  occ. eigenvalues --  -89.05043 -89.05043 -19.27157 -19.27157 -14.52124
  Beta  occ. eigenvalues --  -14.52124 -10.43852 -10.43852 -10.40790 -10.40790
  Beta  occ. eigenvalues --  -10.35389 -10.35389 -10.34898 -10.34898 -10.34805
  Beta  occ. eigenvalues --  -10.34805 -10.34275 -10.34249 -10.34249 -10.34218
  Beta  occ. eigenvalues --  -10.33923 -10.33923 -10.33671 -10.33671 -10.33463
  Beta  occ. eigenvalues --  -10.33463 -10.32202 -10.32202  -8.10911  -8.10911
  Beta  occ. eigenvalues --   -6.07297  -6.07297  -6.06897  -6.06897  -6.06736
  Beta  occ. eigenvalues --   -6.06736  -1.18728  -1.18238  -1.11572  -1.10237
  Beta  occ. eigenvalues --   -1.02673  -1.02643  -0.97124  -0.97077  -0.94897
  Beta  occ. eigenvalues --   -0.92373  -0.91950  -0.87143  -0.86952  -0.86565
  Beta  occ. eigenvalues --   -0.84993  -0.82611  -0.81038  -0.81024  -0.76120
  Beta  occ. eigenvalues --   -0.74720  -0.72964  -0.71883  -0.71230  -0.70542
  Beta  occ. eigenvalues --   -0.69089  -0.67879  -0.66601  -0.65657  -0.62781
  Beta  occ. eigenvalues --   -0.61931  -0.61630  -0.60308  -0.59769  -0.59736
  Beta  occ. eigenvalues --   -0.59198  -0.58695  -0.57626  -0.56264  -0.56196
  Beta  occ. eigenvalues --   -0.55911  -0.55595  -0.54614  -0.53523  -0.53468
  Beta  occ. eigenvalues --   -0.53189  -0.53092  -0.52407  -0.49401  -0.49216
  Beta  occ. eigenvalues --   -0.49214  -0.48780  -0.48750  -0.47929  -0.47308
  Beta  occ. eigenvalues --   -0.47258  -0.45572  -0.45457  -0.41265  -0.41158
  Beta  occ. eigenvalues --   -0.41125  -0.40442  -0.39553  -0.37885  -0.37846
  Beta  occ. eigenvalues --   -0.34668  -0.33511
  Beta virt. eigenvalues --   -0.27434  -0.22566  -0.19158  -0.16876  -0.13786
  Beta virt. eigenvalues --   -0.10864  -0.10796  -0.10318  -0.10223  -0.09958
  Beta virt. eigenvalues --   -0.09693  -0.09520  -0.08768  -0.07887  -0.07618
  Beta virt. eigenvalues --   -0.07416  -0.06294  -0.05995  -0.05914  -0.05840
  Beta virt. eigenvalues --   -0.05599  -0.05429  -0.04695  -0.04263  -0.04077
  Beta virt. eigenvalues --   -0.03816  -0.03205  -0.02744  -0.02406  -0.02380
  Beta virt. eigenvalues --   -0.02151  -0.01777  -0.01421  -0.00901  -0.00899
  Beta virt. eigenvalues --   -0.00727  -0.00155   0.00394   0.00443   0.00691
  Beta virt. eigenvalues --    0.00811   0.01467   0.01488   0.01768   0.01905
  Beta virt. eigenvalues --    0.02425   0.02502   0.03033   0.03362   0.03820
  Beta virt. eigenvalues --    0.04131   0.04376   0.04376   0.04881   0.05036
  Beta virt. eigenvalues --    0.05417   0.05804   0.05996   0.06284   0.06799
  Beta virt. eigenvalues --    0.06809   0.06888   0.07050   0.07430   0.07605
  Beta virt. eigenvalues --    0.07673   0.08069   0.08148   0.08199   0.08746
  Beta virt. eigenvalues --    0.09116   0.09209   0.09564   0.09572   0.09956
  Beta virt. eigenvalues --    0.10042   0.10234   0.10254   0.10775   0.10838
  Beta virt. eigenvalues --    0.11074   0.11249   0.11716   0.12151   0.12336
  Beta virt. eigenvalues --    0.12710   0.12766   0.13307   0.13321   0.13417
  Beta virt. eigenvalues --    0.13646   0.13910   0.14237   0.14953   0.15078
  Beta virt. eigenvalues --    0.15136   0.15236   0.16028   0.16033   0.16218
  Beta virt. eigenvalues --    0.16330   0.16584   0.17030   0.17048   0.17087
  Beta virt. eigenvalues --    0.17633   0.17667   0.18025   0.18319   0.18606
  Beta virt. eigenvalues --    0.18734   0.18756   0.19555   0.19734   0.19760
  Beta virt. eigenvalues --    0.20096   0.20194   0.20664   0.20699   0.21512
  Beta virt. eigenvalues --    0.21560   0.22100   0.23033   0.23128   0.23327
  Beta virt. eigenvalues --    0.23527   0.24176   0.24777   0.24861   0.25165
  Beta virt. eigenvalues --    0.25504   0.26551   0.26779   0.26901   0.27550
  Beta virt. eigenvalues --    0.27957   0.29096   0.29614   0.29976   0.30809
  Beta virt. eigenvalues --    0.31203   0.31218   0.32995   0.33370   0.34479
  Beta virt. eigenvalues --    0.34698   0.35812   0.36413   0.37598   0.37713
  Beta virt. eigenvalues --    0.37981   0.39218   0.40023   0.40190   0.40662
  Beta virt. eigenvalues --    0.41936   0.42184   0.42518   0.44201   0.46314
  Beta virt. eigenvalues --    0.46590   0.47962   0.48147   0.49474   0.50080
  Beta virt. eigenvalues --    0.51072   0.51141   0.52636   0.53342   0.53564
  Beta virt. eigenvalues --    0.54116   0.54522   0.54769   0.56098   0.56822
  Beta virt. eigenvalues --    0.57768   0.57928   0.58128   0.58524   0.59553
  Beta virt. eigenvalues --    0.60382   0.60830   0.61074   0.61190   0.62825
  Beta virt. eigenvalues --    0.63039   0.63358   0.63368   0.63596   0.64059
  Beta virt. eigenvalues --    0.65066   0.65218   0.65741   0.66580   0.66744
  Beta virt. eigenvalues --    0.67498   0.68417   0.68493   0.69430   0.69618
  Beta virt. eigenvalues --    0.70580   0.70872   0.71412   0.71954   0.72476
  Beta virt. eigenvalues --    0.73691   0.74021   0.74476   0.74710   0.75926
  Beta virt. eigenvalues --    0.76840   0.77964   0.78416   0.79059   0.79906
  Beta virt. eigenvalues --    0.79963   0.81342   0.81571   0.82114   0.82526
  Beta virt. eigenvalues --    0.83518   0.83914   0.84769   0.85782   0.86141
  Beta virt. eigenvalues --    0.86268   0.87219   0.87452   0.87834   0.90188
  Beta virt. eigenvalues --    0.90720   0.91568   0.92693   0.94506   0.95468
  Beta virt. eigenvalues --    0.95612   0.96430   0.96727   0.97726   0.97963
  Beta virt. eigenvalues --    0.99052   0.99305   1.01288   1.01373   1.01778
  Beta virt. eigenvalues --    1.02263   1.02905   1.03851   1.04573   1.05535
  Beta virt. eigenvalues --    1.06820   1.06966   1.08062   1.08238   1.09338
  Beta virt. eigenvalues --    1.09849   1.10600   1.10766   1.11191   1.12098
  Beta virt. eigenvalues --    1.13052   1.13739   1.13948   1.15336   1.16345
  Beta virt. eigenvalues --    1.16691   1.17107   1.17554   1.17587   1.18226
  Beta virt. eigenvalues --    1.18352   1.19698   1.20615   1.21896   1.22033
  Beta virt. eigenvalues --    1.22163   1.22596   1.23366   1.23903   1.24682
  Beta virt. eigenvalues --    1.25091   1.26345   1.26408   1.27196   1.27346
  Beta virt. eigenvalues --    1.29665   1.29812   1.29979   1.30358   1.30413
  Beta virt. eigenvalues --    1.31145   1.33355   1.33847   1.36286   1.37229
  Beta virt. eigenvalues --    1.37462   1.38189   1.40095   1.42100   1.42324
  Beta virt. eigenvalues --    1.45068   1.47514   1.49377   1.50924   1.52111
  Beta virt. eigenvalues --    1.52238   1.54156   1.55268   1.56850   1.57982
  Beta virt. eigenvalues --    1.59893   1.60210   1.61199   1.61391   1.63562
  Beta virt. eigenvalues --    1.65602   1.65675   1.66337   1.67504   1.69477
  Beta virt. eigenvalues --    1.70096   1.70696   1.71264   1.72189   1.72986
  Beta virt. eigenvalues --    1.74405   1.75130   1.75503   1.76915   1.77705
  Beta virt. eigenvalues --    1.77736   1.79188   1.80476   1.80516   1.82807
  Beta virt. eigenvalues --    1.83572   1.83586   1.83913   1.84202   1.85706
  Beta virt. eigenvalues --    1.86259   1.87086   1.88510   1.89183   1.89997
  Beta virt. eigenvalues --    1.91567   1.92590   1.92992   1.93713   1.93740
  Beta virt. eigenvalues --    1.96527   1.97192   1.98019   1.99924   2.00311
  Beta virt. eigenvalues --    2.02455   2.02634   2.03258   2.05234   2.05825
  Beta virt. eigenvalues --    2.06641   2.07361   2.08234   2.09984   2.10565
  Beta virt. eigenvalues --    2.13512   2.13937   2.14619   2.15211   2.16689
  Beta virt. eigenvalues --    2.16764   2.18531   2.19249   2.20197   2.21204
  Beta virt. eigenvalues --    2.21353   2.22671   2.22872   2.23944   2.26412
  Beta virt. eigenvalues --    2.26774   2.28922   2.29001   2.29198   2.30359
  Beta virt. eigenvalues --    2.30644   2.31801   2.34856   2.36676   2.36686
  Beta virt. eigenvalues --    2.36893   2.37818   2.37898   2.39623   2.41181
  Beta virt. eigenvalues --    2.42183   2.43148   2.43966   2.44563   2.44582
  Beta virt. eigenvalues --    2.45325   2.45642   2.46981   2.47074   2.47846
  Beta virt. eigenvalues --    2.48506   2.49224   2.49920   2.52779   2.52802
  Beta virt. eigenvalues --    2.53400   2.53894   2.55662   2.55848   2.57484
  Beta virt. eigenvalues --    2.59885   2.60090   2.61278   2.61396   2.62547
  Beta virt. eigenvalues --    2.62647   2.65910   2.67211   2.70563   2.72590
  Beta virt. eigenvalues --    2.74472   2.75111   2.75863   2.78326   2.81118
  Beta virt. eigenvalues --    2.82418   2.85638   2.87144   2.89084   2.91850
  Beta virt. eigenvalues --    2.92614   2.93659   2.96167   2.98127   3.01637
  Beta virt. eigenvalues --    3.07588   3.08691   3.13049   3.13628   3.16564
  Beta virt. eigenvalues --    3.18000   3.18254   3.19181   3.24871   3.29760
  Beta virt. eigenvalues --    3.30370   3.31624   3.32532   3.33091   3.41071
  Beta virt. eigenvalues --    3.41239   3.44982   3.45939   3.67898   3.68084
  Beta virt. eigenvalues --    3.86473   3.86697   4.12086   4.15775   4.16102
  Beta virt. eigenvalues --    4.18428   4.19516   4.21361   4.21600   4.21700
  Beta virt. eigenvalues --    4.24410   4.24942   4.27307   4.27525   4.30834
  Beta virt. eigenvalues --    4.32082   4.33871   4.37517   4.40525   4.43697
  Beta virt. eigenvalues --    4.44267   4.47348   4.55838   4.63485   4.75981
  Beta virt. eigenvalues --    4.76119   4.88225   4.95393
          Condensed to atoms (all electrons):
              1          2          3          4          5          6
     1  N    7.392325   0.180797   0.025028  -0.092768   0.052507  -0.048135
     2  C    0.180797   8.657020   0.559931  -0.615353  -2.940223  -0.350860
     3  C    0.025028   0.559931  10.177452   1.138999  -2.127122  -1.440612
     4  C   -0.092768  -0.615353   1.138999  12.613536   1.582487  -2.126999
     5  C    0.052507  -2.940223  -2.127122   1.582487  12.613439   1.138974
     6  C   -0.048135  -0.350860  -1.440612  -2.126999   1.138974  10.177557
     7  C   -0.105260  -0.046292  -0.350978  -2.940317  -0.615202   0.559972
     8  N   -0.001483  -0.105253  -0.048139   0.052520  -0.092775   0.025029
     9  O   -0.082400   0.228128  -0.075185  -0.019496  -0.009941   0.133591
    10  O   -0.003419   0.030876   0.133583  -0.009932  -0.019503  -0.075180
    11  H    0.000488   0.002573   0.002958   0.093004   0.021045  -0.057777
    12  H    0.303072  -0.046635  -0.057772   0.021048   0.093002   0.002956
    13  C   -0.136523   0.279811  -1.034555  -0.926048  -0.688929  -0.235976
    14  C   -0.044943   0.137279   0.916991   0.595356  -0.483220  -0.102601
    15  C   -0.074924   0.407827   1.658503   0.511747  -0.353636  -0.712038
    16  C   -0.109226  -0.109523   0.365613  -0.894946  -0.998704  -0.185774
    17  H    0.000593  -0.000838  -0.048919  -0.008763  -0.023061   0.008675
    18  C    0.031307  -0.219834  -1.801526   0.284878   0.242691   0.242055
    19  H    0.000012   0.000052   0.000599  -0.001672  -0.000188   0.000028
    20  C    0.001038   0.026348  -0.701659  -0.257838  -0.252869  -0.065248
    21  H   -0.000019   0.000014   0.001092   0.001787  -0.000049   0.000010
    22  C    0.114040   0.112372  -0.917664  -0.325402  -0.104644  -0.066273
    23  H   -0.003383   0.010096   0.006352   0.001435   0.000219   0.000628
    24  C   -0.026153  -0.006902   0.374813  -0.008307   0.068670   0.015484
    25  H   -0.000052  -0.000008   0.000835   0.000273  -0.000028   0.000002
    26  S    0.010191   0.001041   0.021400   0.026659   0.003869   0.007287
    27  C    0.002107  -0.062731  -0.102610  -0.483236   0.595320   0.916924
    28  C   -0.009677  -0.090405  -0.235981  -0.688971  -0.925974  -1.034564
    29  C    0.000102  -0.068849  -0.065252  -0.252891  -0.257824  -0.701703
    30  H    0.000000  -0.000132   0.000010  -0.000049   0.001787   0.001092
    31  C    0.029245  -0.148356   0.242061   0.242690   0.284817  -1.801749
    32  H   -0.000012  -0.001129   0.000028  -0.000188  -0.001672   0.000599
    33  C    0.010492  -0.124874  -0.185767  -0.998658  -0.894844   0.365647
    34  H    0.002506   0.035866   0.008675  -0.023063  -0.008768  -0.048922
    35  C   -0.048400  -0.047111  -0.711942  -0.353482   0.511791   1.658531
    36  C   -0.000608   0.006057   0.015486   0.068683  -0.008296   0.374845
    37  H    0.000000  -0.000002   0.000002  -0.000028   0.000273   0.000835
    38  C    0.002587  -0.041449  -0.066260  -0.104629  -0.325369  -0.917677
    39  H    0.000002   0.000301   0.000628   0.000221   0.001434   0.006346
    40  S    0.000167   0.007268   0.007287   0.003870   0.026654   0.021392
              7          8          9         10         11         12
     1  N   -0.105260  -0.001483  -0.082400  -0.003419   0.000488   0.303072
     2  C   -0.046292  -0.105253   0.228128   0.030876   0.002573  -0.046635
     3  C   -0.350978  -0.048139  -0.075185   0.133583   0.002958  -0.057772
     4  C   -2.940317   0.052520  -0.019496  -0.009932   0.093004   0.021048
     5  C   -0.615202  -0.092775  -0.009941  -0.019503   0.021045   0.093002
     6  C    0.559972   0.025029   0.133591  -0.075180  -0.057777   0.002956
     7  C    8.657190   0.180804   0.030879   0.228112  -0.046641   0.002572
     8  N    0.180804   7.392320  -0.003419  -0.082401   0.303078   0.000488
     9  O    0.030879  -0.003419   8.371610  -0.000129  -0.000009   0.002072
    10  O    0.228112  -0.082401  -0.000129   8.371606   0.002072  -0.000009
    11  H   -0.046641   0.303078  -0.000009   0.002072   0.385610   0.000000
    12  H    0.002572   0.000488   0.002072  -0.000009   0.000000   0.385615
    13  C   -0.090409  -0.009677  -0.006438   0.006286   0.000014  -0.022741
    14  C   -0.062752   0.002105  -0.009671  -0.016986   0.000197  -0.049530
    15  C   -0.047114  -0.048398  -0.003250   0.117740   0.000854  -0.021632
    16  C   -0.124910   0.010484   0.001141  -0.030420   0.001598  -0.015160
    17  H    0.035861   0.002506   0.000003  -0.005060  -0.000004   0.000005
    18  C   -0.148378   0.029241   0.002385  -0.148043   0.000058   0.005684
    19  H   -0.001129  -0.000012   0.000000   0.000283   0.000000   0.000000
    20  C   -0.068857   0.000102  -0.000135  -0.006628   0.000017  -0.001764
    21  H   -0.000132   0.000000   0.000000   0.000007   0.000000   0.000000
    22  C   -0.041468   0.002586  -0.002069  -0.002804   0.000017   0.072515
    23  H    0.000301   0.000002   0.000174  -0.000001   0.000000   0.005829
    24  C    0.006060  -0.000609  -0.000540   0.000525   0.000000  -0.002538
    25  H   -0.000002   0.000000   0.000000   0.000000   0.000000   0.000000
    26  S    0.007268   0.000167   0.000050  -0.000168   0.000000   0.003702
    27  C    0.137292  -0.044944  -0.016990  -0.009671  -0.049526   0.000197
    28  C    0.279847  -0.136527   0.006287  -0.006439  -0.022742   0.000014
    29  C    0.026352   0.001034  -0.006629  -0.000135  -0.001765   0.000017
    30  H    0.000014  -0.000019   0.000007   0.000000   0.000000   0.000000
    31  C   -0.219860   0.031304  -0.148056   0.002386   0.005685   0.000058
    32  H    0.000052   0.000012   0.000283   0.000000   0.000000   0.000000
    33  C   -0.109553  -0.109227  -0.030429   0.001143  -0.015158   0.001598
    34  H   -0.000838   0.000592  -0.005061   0.000003   0.000005  -0.000004
    35  C    0.407813  -0.074915   0.117746  -0.003250  -0.021628   0.000853
    36  C   -0.006906  -0.026149   0.000526  -0.000540  -0.002537   0.000000
    37  H   -0.000008  -0.000052   0.000000   0.000000   0.000000   0.000000
    38  C    0.112367   0.114046  -0.002805  -0.002068   0.072510   0.000017
    39  H    0.010093  -0.003378  -0.000001   0.000174   0.005827   0.000000
    40  S    0.001040   0.010191  -0.000168   0.000050   0.003701   0.000000
             13         14         15         16         17         18
     1  N   -0.136523  -0.044943  -0.074924  -0.109226   0.000593   0.031307
     2  C    0.279811   0.137279   0.407827  -0.109523  -0.000838  -0.219834
     3  C   -1.034555   0.916991   1.658503   0.365613  -0.048919  -1.801526
     4  C   -0.926048   0.595356   0.511747  -0.894946  -0.008763   0.284878
     5  C   -0.688929  -0.483220  -0.353636  -0.998704  -0.023061   0.242691
     6  C   -0.235976  -0.102601  -0.712038  -0.185774   0.008675   0.242055
     7  C   -0.090409  -0.062752  -0.047114  -0.124910   0.035861  -0.148378
     8  N   -0.009677   0.002105  -0.048398   0.010484   0.002506   0.029241
     9  O   -0.006438  -0.009671  -0.003250   0.001141   0.000003   0.002385
    10  O    0.006286  -0.016986   0.117740  -0.030420  -0.005060  -0.148043
    11  H    0.000014   0.000197   0.000854   0.001598  -0.000004   0.000058
    12  H   -0.022741  -0.049530  -0.021632  -0.015160   0.000005   0.005684
    13  C   13.719783  -4.431556  -1.491548   2.713459  -0.023663  -1.300739
    14  C   -4.431556  14.249512   1.537660  -1.579125   0.049449   0.860587
    15  C   -1.491548   1.537660   8.404815  -0.595682  -0.118771  -1.890255
    16  C    2.713459  -1.579125  -0.595682  12.841964   0.279194  -3.771590
    17  H   -0.023663   0.049449  -0.118771   0.279194   0.518797   0.129268
    18  C   -1.300739   0.860587  -1.890255  -3.771590   0.129268  11.291861
    19  H    0.023410   0.000279   0.013932  -0.039432  -0.005023   0.330204
    20  C   -0.090642  -2.684528  -0.347391  -1.616251   0.023311   1.532407
    21  H    0.056790   0.049640   0.020334   0.053909  -0.000155  -0.026572
    22  C    1.854139  -3.475469  -0.521382  -0.445570   0.013122   0.741639
    23  H    0.002584  -0.062736  -0.011221  -0.011646  -0.000002   0.003382
    24  C   -2.124389   0.688175  -0.501422   0.426692  -0.002102  -0.096879
    25  H   -0.011037   0.045780   0.007563   0.001880   0.000000   0.001136
    26  S   -0.150927   0.455599   0.133134  -0.008732   0.000063  -0.068491
    27  C   -0.006447  -0.013408  -0.055008   0.003911  -0.000442   0.011043
    28  C   -0.000870  -0.006447  -0.012492  -0.004282  -0.000058   0.001290
    29  C   -0.000252  -0.001647  -0.006980  -0.000028   0.000001   0.000337
    30  H    0.000000   0.000000   0.000000   0.000000   0.000000   0.000000
    31  C    0.001290   0.011042   0.001050   0.022254   0.000023   0.002576
    32  H    0.000000   0.000000   0.000002   0.000003   0.000000   0.000000
    33  C   -0.004283   0.003911  -0.089316   0.055724   0.000063   0.022254
    34  H   -0.000058  -0.000442  -0.001689   0.000063   0.000000   0.000023
    35  C   -0.012488  -0.054997   0.001045  -0.089301  -0.001689   0.001050
    36  C    0.000038   0.000429   0.001547   0.000833  -0.000001   0.000022
    37  H    0.000000   0.000000   0.000000   0.000000   0.000000   0.000000
    38  C   -0.000163  -0.003055   0.000228  -0.007909   0.000166  -0.002628
    39  H    0.000000   0.000007  -0.000048   0.000004   0.000000  -0.000008
    40  S    0.000024   0.000172   0.000550  -0.000420   0.000006  -0.000242
             19         20         21         22         23         24
     1  N    0.000012   0.001038  -0.000019   0.114040  -0.003383  -0.026153
     2  C    0.000052   0.026348   0.000014   0.112372   0.010096  -0.006902
     3  C    0.000599  -0.701659   0.001092  -0.917664   0.006352   0.374813
     4  C   -0.001672  -0.257838   0.001787  -0.325402   0.001435  -0.008307
     5  C   -0.000188  -0.252869  -0.000049  -0.104644   0.000219   0.068670
     6  C    0.000028  -0.065248   0.000010  -0.066273   0.000628   0.015484
     7  C   -0.001129  -0.068857  -0.000132  -0.041468   0.000301   0.006060
     8  N   -0.000012   0.000102   0.000000   0.002586   0.000002  -0.000609
     9  O    0.000000  -0.000135   0.000000  -0.002069   0.000174  -0.000540
    10  O    0.000283  -0.006628   0.000007  -0.002804  -0.000001   0.000525
    11  H    0.000000   0.000017   0.000000   0.000017   0.000000   0.000000
    12  H    0.000000  -0.001764   0.000000   0.072515   0.005829  -0.002538
    13  C    0.023410  -0.090642   0.056790   1.854139   0.002584  -2.124389
    14  C    0.000279  -2.684528   0.049640  -3.475469  -0.062736   0.688175
    15  C    0.013932  -0.347391   0.020334  -0.521382  -0.011221  -0.501422
    16  C   -0.039432  -1.616251   0.053909  -0.445570  -0.011646   0.426692
    17  H   -0.005023   0.023311  -0.000155   0.013122  -0.000002  -0.002102
    18  C    0.330204   1.532407  -0.026572   0.741639   0.003382  -0.096879
    19  H    0.519470  -0.002787  -0.003937  -0.000055   0.000000  -0.001556
    20  C   -0.002787  10.412850   0.227744   0.731083   0.002617  -0.744505
    21  H   -0.003937   0.227744   0.528757   0.000901   0.000002  -0.081279
    22  C   -0.000055   0.731083   0.000901   9.731475   0.381175  -1.778129
    23  H    0.000000   0.002617   0.000002   0.381175   0.498923   0.004136
    24  C   -0.001556  -0.744505  -0.081279  -1.778129   0.004136   9.205032
    25  H   -0.000002  -0.030226   0.001792   0.004263  -0.000048   0.331654
    26  S    0.000160  -0.075844   0.002061  -0.070211  -0.006598   0.064698
    27  C    0.000000  -0.001647   0.000000  -0.003056   0.000007   0.000429
    28  C    0.000000  -0.000252   0.000000  -0.000163   0.000000   0.000038
    29  C    0.000000  -0.000049   0.000000  -0.000293   0.000000   0.000013
    30  H    0.000000   0.000000   0.000000   0.000000   0.000000   0.000000
    31  C    0.000000   0.000337   0.000000  -0.002627  -0.000008   0.000022
    32  H    0.000000   0.000000   0.000000   0.000000   0.000000   0.000000
    33  C    0.000003  -0.000028   0.000000  -0.007909   0.000004   0.000833
    34  H    0.000000   0.000001   0.000000   0.000166   0.000000  -0.000001
    35  C    0.000002  -0.006979   0.000000   0.000227  -0.000048   0.001547
    36  C    0.000000   0.000013   0.000000   0.000028   0.000000  -0.000002
    37  H    0.000000   0.000000   0.000000   0.000000   0.000000   0.000000
    38  C    0.000000  -0.000293   0.000000   0.000833   0.000000   0.000028
    39  H    0.000000   0.000000   0.000000   0.000000   0.000000   0.000000
    40  S    0.000000  -0.000004   0.000000   0.000033   0.000000  -0.000001
             25         26         27         28         29         30
     1  N   -0.000052   0.010191   0.002107  -0.009677   0.000102   0.000000
     2  C   -0.000008   0.001041  -0.062731  -0.090405  -0.068849  -0.000132
     3  C    0.000835   0.021400  -0.102610  -0.235981  -0.065252   0.000010
     4  C    0.000273   0.026659  -0.483236  -0.688971  -0.252891  -0.000049
     5  C   -0.000028   0.003869   0.595320  -0.925974  -0.257824   0.001787
     6  C    0.000002   0.007287   0.916924  -1.034564  -0.701703   0.001092
     7  C   -0.000002   0.007268   0.137292   0.279847   0.026352   0.000014
     8  N    0.000000   0.000167  -0.044944  -0.136527   0.001034  -0.000019
     9  O    0.000000   0.000050  -0.016990   0.006287  -0.006629   0.000007
    10  O    0.000000  -0.000168  -0.009671  -0.006439  -0.000135   0.000000
    11  H    0.000000   0.000000  -0.049526  -0.022742  -0.001765   0.000000
    12  H    0.000000   0.003702   0.000197   0.000014   0.000017   0.000000
    13  C   -0.011037  -0.150927  -0.006447  -0.000870  -0.000252   0.000000
    14  C    0.045780   0.455599  -0.013408  -0.006447  -0.001647   0.000000
    15  C    0.007563   0.133134  -0.055008  -0.012492  -0.006980   0.000000
    16  C    0.001880  -0.008732   0.003911  -0.004282  -0.000028   0.000000
    17  H    0.000000   0.000063  -0.000442  -0.000058   0.000001   0.000000
    18  C    0.001136  -0.068491   0.011043   0.001290   0.000337   0.000000
    19  H   -0.000002   0.000160   0.000000   0.000000   0.000000   0.000000
    20  C   -0.030226  -0.075844  -0.001647  -0.000252  -0.000049   0.000000
    21  H    0.001792   0.002061   0.000000   0.000000   0.000000   0.000000
    22  C    0.004263  -0.070211  -0.003056  -0.000163  -0.000293   0.000000
    23  H   -0.000048  -0.006598   0.000007   0.000000   0.000000   0.000000
    24  C    0.331654   0.064698   0.000429   0.000038   0.000013   0.000000
    25  H    0.473272  -0.026888   0.000000   0.000000   0.000000   0.000000
    26  S   -0.026888  15.548606   0.000172   0.000024  -0.000004   0.000000
    27  C    0.000000   0.000172  14.249809  -4.431889  -2.684693   0.049639
    28  C    0.000000   0.000024  -4.431889  13.720133  -0.090446   0.056790
    29  C    0.000000  -0.000004  -2.684693  -0.090446  10.413032   0.227742
    30  H    0.000000   0.000000   0.049639   0.056790   0.227742   0.528758
    31  C    0.000000  -0.000242   0.860645  -1.300697   1.532470  -0.026571
    32  H    0.000000   0.000000   0.000279   0.023409  -0.002787  -0.003937
    33  C    0.000000  -0.000420  -1.579107   2.713398  -1.616290   0.053910
    34  H    0.000000   0.000006   0.049450  -0.023662   0.023313  -0.000155
    35  C    0.000000   0.000550   1.537644  -1.491649  -0.347493   0.020333
    36  C    0.000000  -0.000001   0.688398  -2.124581  -0.744572  -0.081278
    37  H    0.000000   0.000000   0.045780  -0.011037  -0.030226   0.001792
    38  C    0.000000   0.000033  -3.475405   1.854160   0.731050   0.000901
    39  H    0.000000   0.000000  -0.062738   0.002583   0.002616   0.000002
    40  S    0.000000   0.000001   0.455569  -0.150909  -0.075844   0.002061
             31         32         33         34         35         36
     1  N    0.029245  -0.000012   0.010492   0.002506  -0.048400  -0.000608
     2  C   -0.148356  -0.001129  -0.124874   0.035866  -0.047111   0.006057
     3  C    0.242061   0.000028  -0.185767   0.008675  -0.711942   0.015486
     4  C    0.242690  -0.000188  -0.998658  -0.023063  -0.353482   0.068683
     5  C    0.284817  -0.001672  -0.894844  -0.008768   0.511791  -0.008296
     6  C   -1.801749   0.000599   0.365647  -0.048922   1.658531   0.374845
     7  C   -0.219860   0.000052  -0.109553  -0.000838   0.407813  -0.006906
     8  N    0.031304   0.000012  -0.109227   0.000592  -0.074915  -0.026149
     9  O   -0.148056   0.000283  -0.030429  -0.005061   0.117746   0.000526
    10  O    0.002386   0.000000   0.001143   0.000003  -0.003250  -0.000540
    11  H    0.005685   0.000000  -0.015158   0.000005  -0.021628  -0.002537
    12  H    0.000058   0.000000   0.001598  -0.000004   0.000853   0.000000
    13  C    0.001290   0.000000  -0.004283  -0.000058  -0.012488   0.000038
    14  C    0.011042   0.000000   0.003911  -0.000442  -0.054997   0.000429
    15  C    0.001050   0.000002  -0.089316  -0.001689   0.001045   0.001547
    16  C    0.022254   0.000003   0.055724   0.000063  -0.089301   0.000833
    17  H    0.000023   0.000000   0.000063   0.000000  -0.001689  -0.000001
    18  C    0.002576   0.000000   0.022254   0.000023   0.001050   0.000022
[...]
 00049936,-0.00012493,-0.00011394,0.00036306,0.00006898,0.00006237,0.00
 005668,-0.00001675,0.00036913,0.00009077,0.00007026,0.00001290,-0.0000
 1223,-0.00000416,-0.00010197,-0.00035052,-0.00011612,-0.00000297,0.000
 01439,-0.00000223,0.00004664,0.00017110,0.00007469,-0.00000877,-0.0000
 0567,-0.00002301,-0.00002715,-0.00015548,-0.00005130,-0.00001776,0.000
 00451,-0.00000620,-0.00014636,0.00009414,0.00002435,-0.01135259,0.0192
 0364,-0.00275598,-0.09494946,-0.14476096,0.04187367,-0.03777075,-0.041
 67787,0.01841878,-0.00054536,0.00113087,-0.00119910,0.02131848,-0.0025
 4254,0.00118413,-0.00078208,-0.00038648,0.00021490,-0.00916780,0.00855
 174,-0.00228489,-0.00031562,0.00008391,0.00001375,0.00231405,-0.004315
 27,0.00070057,-0.02167686,0.42117293,0.00004213,0.00013325,0.00003404,
 0.00025564,0.00040408,0.00002691,0.00015752,-0.00002916,-0.00003946,-0
 .00033101,-0.00013797,0.00004500,-0.00071537,-0.00041864,0.00004087,0.
 00093467,0.00039731,-0.00024628,0.00002704,-0.00004584,0.00000445,0.00
 008295,-0.00003176,-0.00017442,-0.00002497,-0.00028569,-0.00001341,0.0
 0007848,-0.00001079,0.00000902,0.00020623,-0.00006063,-0.00001139,0.00
 000735,0.00000985,-0.00001089,-0.00003747,-0.00004260,-0.00007791,0.00
 000757,0.00006914,0.00005151,-0.00014717,0.00023274,0.00004053,0.00005
 394,-0.00017249,-0.00002801,-0.00003226,-0.00002678,0.00000979,-0.0001
 6826,-0.00003868,-0.00004801,-0.00000750,0.00000657,-0.00000079,0.0000
 4249,0.00015139,0.00007904,0.00000075,-0.00000551,0.00000072,-0.000023
 55,-0.00007794,-0.00002941,0.00000196,0.00000218,0.00000593,0.00002092
 ,0.00005373,0.00003991,0.00000837,-0.00000194,0.00000126,0.00006658,-0
 .00002144,-0.00001020,0.00910544,-0.00574185,0.00850573,0.05156444,0.0
 4262083,-0.07784590,0.01442003,0.01765940,-0.00452677,0.00011708,-0.00
 143370,-0.00217736,-0.00917577,0.00203240,0.00435837,0.00025343,0.0002
 5331,0.00039228,0.00415966,-0.00394985,0.00056263,0.00010297,-0.000126
 06,-0.00019023,-0.00076288,0.00191028,0.00078304,-0.03848307,-0.130305
 45,0.14452102,-0.00003689,0.00007224,-0.00000490,0.00006088,-0.0001239
 9,0.00000910,-0.00015845,-0.00007215,0.00000373,0.00006709,-0.00007478
 ,0.00001466,-0.00011823,0.00013514,-0.00002287,-0.00023845,-0.00004275
 ,0.00003820,0.00001875,0.00009636,0.00000037,0.00002356,-0.00010476,0.
 00001825,-0.00005003,0.00010190,-0.00000867,0.00001236,-0.00007578,-0.
 00000678,-0.00001132,-0.00000294,0.00001851,-0.00000403,-0.00000706,0.
 00000071,0.00002823,0.00003712,0.00001803,-0.00000142,-0.00000424,0.00
 000441,0.00005470,-0.00010348,-0.00003256,-0.00005471,0.00010278,0.000
 02219,-0.00000568,0.00000542,0.00000021,0.00011871,0.00001405,0.000014
 36,0.00000111,-0.00000192,0.00000061,-0.00005342,-0.00007758,-0.000028
 90,0.00000028,0.00000225,-0.00000039,0.00000270,0.00002809,0.00000686,
 0.00000006,-0.00000444,0.00000049,-0.00000188,-0.00001618,-0.00000754,
 -0.00000482,0.00000009,0.00000078,-0.00002521,-0.00000761,-0.00000669,
 -0.00154311,-0.00249056,0.00139162,-0.01049126,0.00913801,-0.00278267,
 0.00071024,0.00050492,-0.00042552,0.00005198,-0.00057788,0.00023385,0.
 00028464,-0.00005088,-0.00001004,-0.00000902,-0.00001289,0.00001251,-0
 .00013662,0.00021842,-0.00005152,0.00003306,-0.00002198,0.00001086,-0.
 00019781,0.00065399,-0.00009740,-0.34116295,0.07877633,-0.00762949,0.3
 5094860,0.00001410,-0.00001364,0.00000250,-0.00000678,0.00004078,0.000
 00536,-0.00000090,0.00002622,0.00001723,-0.00003501,-0.00000552,-0.000
 01880,-0.00003461,0.00007486,-0.00008290,-0.00014091,-0.00035410,0.000
 20794,-0.00001476,-0.00000256,-0.00000037,-0.00004119,0.00006836,-0.00
 009643,0.00001302,-0.00003188,-0.00000467,0.00000076,0.00001857,-0.000
 00829,0.00000097,-0.00001129,0.00012412,-0.00000100,0.00000199,0.00000
 065,-0.00000307,-0.00000543,-0.00000325,-0.00000054,0.00000429,-0.0000
 0198,-0.00000474,0.00000531,0.00000417,0.00000286,-0.00000687,-0.00000
 011,-0.00000102,-0.00000100,0.00000161,-0.00000936,-0.00000094,-0.0000
 0279,-0.00000031,0.00000011,0.00000054,0.00000298,0.00000862,0.0000038
 9,0.00000010,-0.00000021,0.00000025,-0.00000083,-0.00000307,-0.0000011
 2,-0.00000006,0.00000054,0.00000057,0.00000192,0.00000379,0.00000119,0
 .00000014,-0.00000034,0.00000039,0.00000204,-0.00000141,0.00000045,-0.
 00274514,-0.00131188,0.00220339,-0.01546276,0.01049037,-0.00222760,0.0
 0006340,0.00091250,-0.00168387,0.00031032,-0.00033946,0.00025736,0.000
 37490,-0.00008830,0.00001394,-0.00001087,0.00001673,0.00009012,-0.0000
 5304,0.00019900,-0.00016888,0.00001179,-0.00003079,-0.00000130,-0.0007
 2283,0.00082633,0.00024012,0.07994386,-0.07037195,0.01251680,-0.084088
 40,0.06832064,0.00000373,-0.00000057,-0.00000015,0.00001175,0.00002355
 ,0.00000919,-0.00002798,-0.00001759,0.00004209,-0.00004198,-0.00005906
 ,-0.00003646,-0.00005824,-0.00008765,-0.00024676,0.00016196,0.00044440
 ,0.00026189,0.00021432,-0.00002662,0.00001921,-0.00042961,-0.00002155,
 0.00013262,0.00000159,-0.00001533,-0.00001500,-0.00003509,-0.00001447,
 -0.00000576,0.00018418,-0.00002384,-0.00010506,0.00000255,-0.00000107,
 0.00000594,0.00000399,-0.00000064,-0.00000029,-0.00000045,0.00000837,-
 0.00000331,0.00001547,-0.00002202,0.00000059,-0.00001272,0.00002699,0.
 00000884,0.00000259,0.00000220,-0.00000058,0.00002190,-0.00000003,-0.0
 0000013,0.00000112,-0.00000056,0.00000103,-0.00001311,-0.00000612,-0.0
 0000206,0.00000014,0.00000002,0.00000022,-0.00000088,0.00000367,-0.000
 00128,0.00000044,-0.00000084,0.00000232,0.00000377,0.00000672,0.000001
 24,-0.00000079,-0.00000041,0.00000163,-0.00000313,-0.00001154,-0.00000
 420,0.00119934,0.00286046,0.00270860,0.00821929,-0.00419199,0.00270603
 ,-0.00041386,-0.00145424,-0.00278806,-0.00012507,0.00032268,0.00028241
 ,-0.00011022,0.00004997,-0.00001602,0.00000528,0.00006007,0.00020084,-
 0.00002550,-0.00009249,-0.00020679,-0.00001079,0.00000578,-0.00001625,
 0.00042306,-0.00016693,0.00101577,-0.00821769,0.01215867,-0.02703000,0
 .00863119,-0.01341513,0.02333269,0.00015944,0.00020004,0.00001270,-0.0
 0000752,0.00084887,-0.00001639,-0.00041899,-0.00019218,0.00004407,0.00
 020866,-0.00055169,-0.00023573,-0.00197928,-0.00060248,0.00027676,0.00
 569518,-0.00059488,0.00061548,0.00003056,-0.00027982,0.00044388,-0.002
 62671,0.00071340,-0.00014715,0.00023245,-0.00051165,-0.00000073,0.0001
 9346,-0.00018282,-0.00007236,-0.00126312,-0.00027435,0.00076920,-0.000
 00403,0.00000266,-0.00000758,-0.00002139,-0.00003986,-0.00003868,-0.00
 002375,0.00002968,0.00001201,0.00009926,0.00000205,0.00001613,-0.00003
 254,0.00002565,0.00000837,-0.00004705,-0.00001905,0.00001069,-0.000007
 94,-0.00002302,-0.00001901,-0.00000374,0.00000312,0.00000158,-0.000020
 31,0.00007926,0.00003538,0.00000274,-0.00000299,0.00000038,-0.00000577
 ,-0.00002340,-0.00001224,0.00000136,0.00000088,0.00000125,0.00002836,0
 .00005150,0.00002817,0.00000299,-0.00000140,0.00000087,0.00003180,-0.0
 0004092,-0.00001470,-0.10251622,-0.01849334,0.00931168,0.00848266,0.01
 110539,-0.00351040,-0.00546720,0.00455882,-0.00132765,0.00024994,0.001
 35955,-0.00060160,-0.00045598,-0.00195194,0.00065017,0.00011017,0.0001
 0457,0.00004968,-0.00447453,0.00154844,-0.00038488,0.00031456,-0.00114
 887,0.00021960,-0.00813918,-0.03071198,0.01322046,-0.04269493,0.023275
 32,-0.00569113,0.00130993,0.00054693,-0.00053763,0.51293801,0.00064042
 ,-0.00021586,0.00007244,-0.00066709,0.00263556,-0.00019102,-0.00020041
 ,0.00015294,-0.00024449,0.00069269,-0.00104012,-0.00000111,-0.00360074
 ,-0.00143523,0.00037179,0.01133707,-0.00413530,-0.00074502,0.00114290,
 0.00039693,0.00027948,-0.00206670,0.00357814,0.00119303,0.00108742,-0.
 00168321,0.00016198,-0.00006129,0.00001868,0.00006888,-0.00177612,-0.0
 0053849,-0.00149604,0.00000426,0.00004920,-0.00000221,-0.00018782,-0.0
 0026315,-0.00012205,-0.00005842,0.00004215,-0.00001925,0.00004084,0.00
 040696,0.00017104,0.00018032,-0.00035552,-0.00007674,-0.00000134,-0.00
 003022,-0.00000417,-0.00053372,-0.00012533,-0.00009449,-0.00001007,0.0
 0001460,-0.00000371,0.00019705,0.00049984,0.00019031,0.00000237,-0.000
 01671,-0.00000240,-0.00002596,-0.00014757,-0.00003668,0.00000051,0.000
 01980,0.00000381,0.00005609,0.00017428,0.00007958,0.00002757,-0.000002
 90,-0.00000365,0.00017228,-0.00004313,-0.00000063,-0.02999435,-0.29593
 563,0.10271088,0.04371203,-0.03615543,0.01569401,0.00434682,0.00352554
 ,-0.00108989,-0.00015779,-0.00052697,0.00005181,0.00229319,-0.00315062
 ,0.00033932,0.00003620,0.00014131,0.00010704,-0.00175934,0.00907395,-0
 .00279321,-0.00028596,0.00008081,0.00036379,-0.03057725,-0.02090927,0.
 01196288,0.01793504,-0.01948579,0.01056117,-0.00097324,-0.00578081,0.0
 0225248,-0.11908438,0.60677146,-0.00008161,0.00000546,-0.00002578,0.00
 015412,-0.00129938,-0.00000499,0.00020988,0.00016054,0.00010405,-0.000
 08577,0.00079323,0.00004960,0.00249882,0.00087172,-0.00044500,-0.00450
 779,-0.00094479,-0.00026216,-0.00031490,0.00021147,-0.00032167,0.00129
 967,-0.00061019,-0.00053028,-0.00042630,0.00073143,-0.00000237,-0.0000
 3513,0.00030733,0.00007851,-0.00037101,-0.00003335,0.00066981,0.000002
 16,-0.00001490,-0.00000568,0.00005941,0.00009577,0.00004656,0.00003720
 ,-0.00000903,-0.00000387,-0.00005931,-0.00008177,-0.00005170,-0.000044
 52,0.00007475,0.00000692,0.00000919,0.00001314,-0.00000312,0.00013599,
 0.00003703,0.00003044,0.00000087,-0.00000384,-0.00000283,-0.00004561,-
 0.00015726,-0.00005998,-0.00000132,0.00000470,-0.00000109,0.00000767,0
 .00003428,0.00001527,-0.00000058,-0.00000537,-0.00000896,-0.00002203,-
 0.00007305,-0.00002828,-0.00000798,0.00000174,-0.00000082,-0.00005169,
 0.00003014,0.00000479,0.01576658,0.10759461,-0.10022776,-0.01558441,0.
 01811962,0.00002351,-0.00138185,-0.00123151,0.00198587,0.00005789,0.00
 006092,-0.00027876,-0.00069962,0.00097758,-0.00069476,-0.00002149,-0.0
 0010309,-0.00014045,0.00092152,-0.00253290,0.00397481,0.00005040,0.000
 34546,0.00075495,0.01008908,0.01027291,-0.00307223,-0.00417249,0.00771
 204,0.00690541,0.00032623,0.00302814,0.00002004,0.03879052,-0.23199312
 ,0.18822820,0.00005612,-0.00003858,0.00000373,-0.00011264,-0.00012647,
 0.00000383,0.00004043,0.00005657,-0.00000207,-0.00006756,0.00024855,-0
 .00006734,0.00035326,0.00018946,-0.00006621,0.00022916,-0.00159725,0.0
 0038701,-0.00072119,-0.00039906,0.00035192,-0.00239149,0.00132183,0.00
 082552,0.00002596,0.00005193,-0.00000018,0.00010516,0.00012989,-0.0000
 8179,-0.00173313,-0.00049357,0.00252313,-0.00000310,-0.00000659,0.0000
 0164,-0.00000076,0.00000359,-0.00000245,0.00000029,-0.00001157,-0.0000
 0457,-0.00000350,0.00000629,0.00001037,0.00000905,-0.00001203,-0.00000
 659,-0.00000511,0.00000022,0.00000416,-0.00001019,0.00000409,-0.000000
 26,-0.00000031,-0.00000001,0.00000048,0.00000842,-0.00000111,0.0000023
 7,0.00000040,0.00000038,0.00000035,0.00000195,0.00000054,0.00000066,-0
 .00000163,-0.00000011,-0.00000179,-0.00000267,-0.00000833,-0.00000251,
 0.00000008,-0.00000010,-0.00000042,-0.00000182,0.00001019,0.00000580,0
 .01021557,-0.00547797,0.00229901,-0.00002829,-0.00193835,0.00049956,0.
 00069169,-0.00013756,-0.00001500,0.00003986,-0.00015727,0.00013213,0.0
 0000617,0.00001908,-0.00007895,-0.00000134,0.00000183,0.00001017,-0.00
 002496,-0.00000882,-0.00007387,-0.00000965,0.00002125,0.00002385,-0.00
 045114,0.00094646,-0.00032730,-0.00545039,-0.00212745,0.00107834,0.000
 39036,0.00129494,-0.00031277,-0.18469270,0.14135140,-0.06434222,0.1962
 4987,0.00007564,0.00005608,-0.00000425,0.00003612,-0.00017397,0.000039
 99,-0.00015586,0.00003728,0.00006638,0.00014467,0.00010273,-0.00005701
 ,0.00021694,0.00012368,0.00013480,-0.00030764,-0.00110058,0.00033011,-
 0.00051206,0.00076469,-0.00003195,0.00077633,0.00034093,-0.00103911,-0
 .00003606,0.00008122,-0.00002531,0.00003710,-0.00041515,0.,0.00057891,
 0.00128953,0.00041098,-0.00000464,-0.00000950,-0.00000899,0.00002855,0
 .00002488,0.00001143,-0.00000037,0.00000875,0.00001204,0.00005206,-0.0
 0009279,-0.00003200,-0.00005338,0.00010969,0.00002795,-0.00000295,0.00
 000971,-0.00000071,0.00010520,0.00001213,0.00001016,0.00000401,-0.0000
 0180,-0.00000095,-0.00005069,-0.00006166,-0.00002310,0.00000089,0.0000
 0224,-0.00000034,0.00000115,0.00001969,0.00000565,-0.00000012,-0.00000
 445,0.00000058,0.00000762,-0.00000630,-0.00000232,-0.00000439,0.000000
 52,0.00000082,-0.00002488,-0.00001956,-0.00001195,0.01865721,-0.007860
 74,0.00360311,-0.00227299,-0.00312674,0.00386973,0.00163016,0.00006024
 ,0.00017968,-0.00007563,-0.00040481,0.00010296,-0.00035155,0.00007695,
 -0.00005864,-0.00003045,-0.00000372,0.00001187,0.00015864,-0.00052506,
 0.00002803,0.00001991,-0.00002082,0.00008176,0.00041626,0.00074341,-0.
 00189980,-0.00363048,-0.00007364,0.00041818,0.00016032,0.00125397,0.00
 082231,0.13852361,-0.19130799,0.07962792,-0.14856604,0.19446171,-0.000
 10794,-0.00007278,-0.00001625,0.00009517,0.00021392,0.00001632,0.00001
 836,-0.00010144,0.00004903,-0.00028065,-0.00026002,-0.00014577,-0.0003
 2793,-0.00043955,0.00029635,-0.00037041,0.00203136,-0.00041378,0.00127
 212,-0.00063776,0.00030704,-0.00107306,-0.00037814,0.00019009,-0.00001
 003,-0.00011091,-0.00001939,-0.00031951,0.00022789,-0.00008865,0.00359
 776,0.00040848,-0.00191918,0.00000219,-0.00000295,0.00000364,-0.000002
 55,-0.00002420,-0.00000127,-0.00000545,0.00002098,0.00000729,0.0000100
 5,-0.00001705,-0.00001665,0.00000114,0.00002627,0.00002089,0.00003109,
 0.00000501,-0.00000145,-0.00000700,-0.00000749,-0.00000850,0.00000317,
 -0.00000059,0.00000390,-0.00000654,0.00002072,0.00000245,-0.00000118,-
 0.00000137,0.00000187,-0.00000092,-0.00000332,-0.00000947,0.00000180,-
 0.00000069,0.00000939,0.00000786,0.00002354,0.00000608,-0.00000030,-0.
 00000069,0.00000230,-0.00000214,-0.00002509,-0.00000871,-0.00786621,0.
 00132756,0.00011750,0.00094834,0.00291880,0.00391356,-0.00079725,0.000
 12352,0.00072268,0.00004146,0.00014727,-0.00009523,0.00025064,-0.00006
 614,-0.00013922,0.00001077,-0.00000103,-0.00000491,-0.00014686,0.00014
 282,-0.00004778,-0.00000705,0.00003152,0.00013643,0.00077662,-0.001701
 34,-0.00270862,0.00243764,0.00087935,-0.00014898,0.00013130,0.00026511
 ,0.00233809,-0.06631802,0.08295178,-0.05947974,0.06416050,-0.08275340,
 0.05771282,-0.00057056,0.00050755,-0.00004790,0.00064932,-0.00219295,0
 .00010500,-0.00064910,-0.00053019,0.00003447,0.00054641,0.00013807,0.0
 0017626,0.00090647,0.00123141,-0.00039398,-0.00315681,0.00006364,0.000
 11345,-0.00018144,0.00007849,0.00003378,0.00033120,-0.00029119,0.00050
 061,-0.00097255,0.00147233,-0.00015214,0.00002959,-0.00002563,-0.00004
 533,-0.00100215,-0.00033626,0.00020780,-0.00001670,-0.00004384,0.00001
 631,0.00015156,0.00021457,0.00012558,0.00000029,-0.00009803,-0.0000182
 1,0.00023346,-0.00050348,-0.00018280,-0.00022476,0.00046416,0.00009357
 ,-0.00000524,0.00003554,0.00000064,0.00056689,0.00011048,0.00008620,0.
 00000600,-0.00001341,0.00000390,-0.00021675,-0.00045984,-0.00017444,-0
 .00000136,0.00001526,-0.00000053,0.00002967,0.00016935,0.00005547,-0.0
 0000153,-0.00002450,0.00000210,-0.00003325,-0.00014951,-0.00006905,-0.
 00002609,0.00000272,0.00000332,-0.00015093,0.00003987,-0.00000418,-0.0
 3525710,-0.04726494,0.02293243,-0.00526804,0.00565949,-0.00125321,-0.0
 0557837,-0.00745277,0.00363292,-0.00003894,0.00003153,0.00003068,0.002
 74031,0.00180256,-0.00058192,-0.00013017,-0.00023413,-0.00010249,-0.00
 391411,-0.00225766,0.00143636,0.00049160,-0.00005869,0.00016055,0.0131
 4967,0.00361371,-0.00274545,-0.06179458,0.05365602,-0.01956612,0.00018
 804,0.02079311,-0.00873015,-0.17518856,-0.03323452,0.02184045,-0.01271
 022,-0.00555112,0.00385301,0.28706872,-0.00004871,0.00103905,0.0000551
 8,0.00116759,0.00006647,0.00012954,-0.00080355,-0.00067174,-0.00014484
 ,0.00003722,-0.00097865,0.00026173,-0.00303341,-0.00075128,0.00001760,
 0.00426276,0.00096640,-0.00088417,-0.00042081,0.00129306,-0.00002710,0
 .00123635,-0.00039584,-0.00040823,-0.00054155,-0.00003889,-0.00015489,
 0.00048065,-0.00103780,-0.00010482,-0.00026604,0.00015889,0.00062460,0
 .00001056,-0.00001189,0.00000217,0.00004048,0.00002959,0.00003175,0.00
 002169,0.00019267,0.00006448,0.00003874,-0.00000557,-0.00005917,-0.000
 20237,0.00019697,0.00004252,-0.00014242,-0.00003584,0.00003107,0.00026
 701,-0.00001504,-0.00000201,-0.00000745,0.00000356,0.00000612,-0.00019
 134,-0.00002710,-0.00001587,0.00000727,-0.00000151,-0.00000065,-0.0000
 3596,-0.00003590,-0.00003514,0.00000987,-0.00002076,0.00002470,0.00004
 404,0.00009562,0.00002570,-0.00000499,-0.00000289,0.00001061,0.0000370
 6,-0.00014706,-0.00006866,-0.01501997,-0.02625551,0.01453205,-0.030136
 19,-0.05787757,0.02882596,-0.00067226,0.01400801,-0.00200615,0.0003053
 4,-0.00003553,-0.00011566,-0.01174434,-0.00165055,0.00118998,-0.000496
 25,-0.00016028,-0.00033503,0.00539715,-0.00814631,0.00262757,0.0004718
 3,-0.00027708,-0.00020912,0.00412841,0.00166402,0.00225725,0.02909162,
 -0.16638290,0.05353220,-0.00111193,-0.00391152,0.00058235,-0.00824867,
 -0.04429689,0.00798160,0.01544977,0.00562923,-0.00515995,0.01062280,0.
 28782836,0.00007096,-0.00046889,-0.00002114,-0.00058360,0.00020126,-0.
 00006357,0.00041963,0.00035673,-0.00001186,0.00002151,0.00036875,0.000
 03914,0.00103463,0.00031207,-0.00014135,-0.00137268,-0.00082035,0.0002
 8032,-0.00038058,-0.00023522,-0.00009069,0.00079976,-0.00022585,0.0000
 0374,0.00030655,-0.00013606,0.00007552,-0.00008220,0.00025224,0.000011
 26,-0.00023996,0.00019464,0.00003362,-0.00000297,0.00001732,0.00001311
 ,-0.00004952,-0.00005026,-0.00001539,-0.00000341,-0.00008436,-0.000042
 30,-0.00005850,0.00009315,0.00005403,0.00013328,-0.00018194,-0.0000404
 3,0.00004870,0.00000857,-0.00000522,-0.00021000,0.00000181,-0.00000554
 ,0.00000276,-0.00000071,-0.00000031,0.00013257,0.00007581,0.00002561,-
 0.00000217,-0.00000070,0.00000172,0.00001454,-0.00000201,0.00000747,-0
 .00000551,0.00001233,-0.00000894,-0.00002382,-0.00002669,-0.00001363,0
 .00000601,0.00000002,-0.00000399,0.00000334,0.00007177,0.00004067,0.00
 970826,0.01688722,0.00031527,0.01182366,0.02663263,-0.00110987,0.00152
 113,-0.00268815,0.00691972,-0.00012651,0.00004725,0.00011175,0.0041459
 5,0.00053928,-0.00096057,0.00020601,-0.00018400,-0.00076458,-0.0014862
 4,0.00330422,-0.00080487,-0.00022540,-0.00000422,-0.00065653,-0.002816
 68,0.00204324,0.00547266,-0.00903802,0.05259694,-0.05380801,0.00020692
 ,-0.00126834,-0.00261312,0.01441681,0.00933238,-0.03724645,-0.00693823
 ,-0.00384661,-0.00058416,-0.02137695,-0.10312529,0.08560691\\0.0000008
 1,-0.00000062,0.00000056,0.00000168,-0.00000017,0.00000010,-0.00000002
 ,-0.00000210,-0.00000001,-0.00000002,-0.00000005,-0.00000024,0.0000001
 1,0.00000010,-0.00000029,0.00000013,0.00000218,-0.00000014,-0.00000155
 ,0.00000007,-0.00000028,-0.00000101,0.00000052,0.00000075,0.00000207,0
 .00000014,-0.00000002,-0.00000215,-0.00000003,0.00000012,-0.00000159,0
 .00000169,-0.00000030,0.00000157,-0.00000173,-0.00000034,-0.00000047,-
 0.00000410,-0.00000008,-0.00000009,-0.00000335,-0.00000010,-0.00000052
 ,-0.00000189,0.00000011,-0.00000121,-0.00000258,0.,-0.00000188,-0.0000
 0160,-0.00000002,-0.00000219,-0.00000315,-0.00000001,-0.00000264,-0.00
 000323,0.,-0.00000131,-0.00000392,0.00000005,-0.00000182,-0.00000482,-
 0.00000001,0.00000136,-0.00000311,0.00000019,0.00000149,-0.00000287,-0
 .00000006,0.00000020,-0.00000494,0.00000005,-0.00000011,-0.00000564,0.
 00000003,0.00000102,-0.00000460,-0.00000012,0.00000003,0.00000335,-0.0
 0000008,0.00000053,0.00000397,0.,0.00000135,0.00000403,-0.00000002,0.0
 0000182,0.00000481,0.,0.00000202,0.00000322,0.,0.00000267,0.00000320,0
 .,0.00000139,0.00000253,-0.00000007,0.00000181,0.00000159,0.00000002,0
 .00000046,0.00000191,0.00000012,-0.00000014,0.00000510,-0.00000004,0.0
 0000005,0.00000561,0.00000005,-0.00000138,0.00000313,0.00000017,-0.000
 00147,0.00000288,-0.00000008,-0.00000099,0.00000447,-0.00000002\\\@


 THAT'S WHAT MAKES US A GREAT COUNTRY.
 THE LITTLE THINGS ARE SERIOUS AND THE BIG ONES ARE NOT.
           WILL ROGERS
 Job cpu time:  1 days  3 hours 43 minutes 26.0 seconds.
 File lengths (MBytes):  RWF=   2748 Int=      0 D2E=      0 Chk=     32 Scr=      1
 Normal termination of Gaussian 09 at Thu Sep 14 18:19:20 2023.
