 Entering Gaussian System, Link 0=g09
 Initial command:
 /apps/software//g09/l1.exe /scratch/nathalia.rosa/82987.cluster.abaxnet/Gau-27172.inp -scrdir=/scratch/nathalia.rosa/82987.cluster.abaxnet/
 Entering Link 1 = /apps/software//g09/l1.exe PID=     27173.
  
 Copyright (c) 1988,1990,1992,1993,1995,1998,2003,2009, Gaussian, Inc.
                  All Rights Reserved.
  
 This is part of the Gaussian(R) 09 program.  It is based on
 the Gaussian(R) 03 system (copyright 2003, Gaussian, Inc.),
 the Gaussian(R) 98 system (copyright 1998, Gaussian, Inc.),
 the Gaussian(R) 94 system (copyright 1995, Gaussian, Inc.),
 the Gaussian 92(TM) system (copyright 1992, Gaussian, Inc.),
 the Gaussian 90(TM) system (copyright 1990, Gaussian, Inc.),
 the Gaussian 88(TM) system (copyright 1988, Gaussian, Inc.),
 the Gaussian 86(TM) system (copyright 1986, Carnegie Mellon
 University), and the Gaussian 82(TM) system (copyright 1983,
 Carnegie Mellon University). Gaussian is a federally registered
 trademark of Gaussian, Inc.
  
 This software contains proprietary and confidential information,
 including trade secrets, belonging to Gaussian, Inc.
  
 This software is provided under written license and may be
 used, copied, transmitted, or stored only in accord with that
 written license.
  
 The following legend is applicable only to US Government
 contracts under FAR:
  
                    RESTRICTED RIGHTS LEGEND
  
 Use, reproduction and disclosure by the US Government is
 subject to restrictions as set forth in subparagraphs (a)
 and (c) of the Commercial Computer Software - Restricted
 Rights clause in FAR 52.227-19.
  
 Gaussian, Inc.
 340 Quinnipiac St., Bldg. 40, Wallingford CT 06492
  
  
 ---------------------------------------------------------------
 Warning -- This program may not be used in any manner that
 competes with the business of Gaussian, Inc. or will provide
 assistance to any competitor of Gaussian, Inc.  The licensee
 of this program is prohibited from giving any competitor of
 Gaussian, Inc. access to this program.  By using this program,
 the user acknowledges that Gaussian, Inc. is engaged in the
 business of creating and licensing software in the field of
 computational chemistry and represents and warrants to the
 licensee that it is not a competitor of Gaussian, Inc. and that
 it will not use this program in any manner prohibited above.
 ---------------------------------------------------------------
  

 Cite this work as:
 Gaussian 09, Revision A.02,
 M. J. Frisch, G. W. Trucks, H. B. Schlegel, G. E. Scuseria, 
 M. A. Robb, J. R. Cheeseman, G. Scalmani, V. Barone, B. Mennucci, 
 G. A. Petersson, H. Nakatsuji, M. Caricato, X. Li, H. P. Hratchian, 
 A. F. Izmaylov, J. Bloino, G. Zheng, J. L. Sonnenberg, M. Hada, 
 M. Ehara, K. Toyota, R. Fukuda, J. Hasegawa, M. Ishida, T. Nakajima, 
 Y. Honda, O. Kitao, H. Nakai, T. Vreven, J. A. Montgomery, Jr., 
 J. E. Peralta, F. Ogliaro, M. Bearpark, J. J. Heyd, E. Brothers, 
 K. N. Kudin, V. N. Staroverov, R. Kobayashi, J. Normand, 
 K. Raghavachari, A. Rendell, J. C. Burant, S. S. Iyengar, J. Tomasi, 
 M. Cossi, N. Rega, J. M. Millam, M. Klene, J. E. Knox, J. B. Cross, 
 V. Bakken, C. Adamo, J. Jaramillo, R. Gomperts, R. E. Stratmann, 
 O. Yazyev, A. J. Austin, R. Cammi, C. Pomelli, J. W. Ochterski, 
 R. L. Martin, K. Morokuma, V. G. Zakrzewski, G. A. Voth, 
 P. Salvador, J. J. Dannenberg, S. Dapprich, A. D. Daniels, 
 O. Farkas, J. B. Foresman, J. V. Ortiz, J. Cioslowski, 
 and D. J. Fox, Gaussian, Inc., Wallingford CT, 2009.
 
 ******************************************
 Gaussian 09:  EM64L-G09RevA.02 11-Jun-2009
                13-Sep-2023 
 ******************************************
 %chk=/home/nathalia.rosa/DPP-SUB/DPP-SUB-4a/ANION/DPP-SUB-4A-ANION.chk
 -----------------------------------------------------------
 # opt=tight freq b3lyp/6-31+g(d,p) nosymm geom=connectivity
 -----------------------------------------------------------
 1/7=10,14=-1,18=20,19=15,26=3,38=1,57=2/1,3;
 2/9=110,12=2,15=1,17=6,18=5,40=1/2;
 3/5=1,6=6,7=111,11=2,16=1,25=1,30=1,71=1,74=-5/1,2,3;
 4//1;
 5/5=2,38=5/2;
 6/7=2,8=2,9=2,10=2,28=1/1;
 7/30=1/1,2,3,16;
 1/7=10,14=-1,18=20,19=15/3(2);
 2/9=110,15=1/2;
 99//99;
 2/9=110,15=1/2;
 3/5=1,6=6,7=111,11=2,16=1,25=1,30=1,71=1,74=-5/1,2,3;
 4/5=5,16=3/1;
 5/5=2,38=5/2;
 7/30=1/1,2,3,16;
 1/7=10,14=-1,18=20,19=15/3(-5);
 2/9=110,15=1/2;
 6/7=2,8=2,9=2,10=2,19=2,28=1/1;
 99/9=1/99;
 -------------------
 Title Card Required
 -------------------
 Symbolic Z-matrix:
 Charge = -1 Multiplicity = 2
 N                     1.56525   1.42888  -0.3034 
 C                     0.1956    1.80239  -0.38796 
 C                     1.75847   0.04881  -0.33595 
 C                     0.49301  -0.52026  -0.39523 
 C                    -0.49296   0.52013  -0.39511 
 C                    -1.75843  -0.04895  -0.33576 
 C                    -0.19551  -1.80252  -0.38825 
 N                    -1.56522  -1.42904  -0.30356 
 O                    -0.18437   2.96736  -0.46719 
 O                     0.18443  -2.96745  -0.46809 
 H                    -2.28994  -2.10671  -0.49219 
 H                     2.29009   2.1067   -0.49103 
 C                     5.5498   -0.55459   0.05217 
 C                     4.26041   0.11278   0.17888 
 C                     3.074    -0.56655  -0.31124 
 C                     3.2143   -1.85858  -0.79862 
 H                     2.33009  -2.3966   -1.12435 
 C                     4.47905  -2.5014   -0.89608 
 H                     4.52001  -3.50753  -1.30122 
 C                     5.631    -1.86566  -0.50721 
 H                     6.59833  -2.35058  -0.59945 
 C                     4.38948   1.33854   0.82113 
 H                     3.62135   2.02524   1.1424 
 C                     6.59173   0.20192   0.57188 
 H                     7.64215  -0.05149   0.6071 
 S                     6.0256    1.67731   1.22958 
 C                    -4.26045  -0.11283   0.17907 
 C                    -5.54976   0.55471   0.0524 
 C                    -5.63079   1.86589  -0.50672 
 H                    -6.59807   2.35094  -0.59889 
 C                    -4.47875   2.50163  -0.89529 
 H                    -4.51958   3.50787  -1.30017 
 C                    -3.21408   1.85866  -0.7979 
 H                    -2.32979   2.39669  -1.12342 
 C                    -3.07393   0.56646  -0.31089 
 C                    -6.59183  -0.20177   0.57188 
 H                    -7.64222   0.05175   0.60702 
 C                    -4.38972  -1.33863   0.82124 
 H                    -3.62172  -2.02541   1.14262 
 S                    -6.02593  -1.67732   1.22941 
 

 GradGradGradGradGradGradGradGradGradGradGradGradGradGradGradGradGradGrad
 Berny optimization.
 Initialization pass.
                           ----------------------------
                           !    Initial Parameters    !
                           ! (Angstroms and Degrees)  !
 --------------------------                            --------------------------
 ! Name  Definition              Value          Derivative Info.                !
 --------------------------------------------------------------------------------
 ! R1    R(1,2)                  1.4222         estimate D2E/DX2                !
 ! R2    R(1,3)                  1.3939         estimate D2E/DX2                !
 ! R3    R(1,12)                 1.01           estimate D2E/DX2                !
 ! R4    R(2,5)                  1.4555         estimate D2E/DX2                !
 ! R5    R(2,9)                  1.2279         estimate D2E/DX2                !
 ! R6    R(3,4)                  1.3888         estimate D2E/DX2                !
 ! R7    R(3,15)                 1.4526         estimate D2E/DX2                !
 ! R8    R(4,5)                  1.4334         estimate D2E/DX2                !
 ! R9    R(4,7)                  1.4554         estimate D2E/DX2                !
 ! R10   R(5,6)                  1.3888         estimate D2E/DX2                !
 ! R11   R(6,8)                  1.3939         estimate D2E/DX2                !
 ! R12   R(6,35)                 1.4526         estimate D2E/DX2                !
 ! R13   R(7,8)                  1.4222         estimate D2E/DX2                !
 ! R14   R(7,10)                 1.2279         estimate D2E/DX2                !
 ! R15   R(8,11)                 1.01           estimate D2E/DX2                !
 ! R16   R(13,14)                1.4574         estimate D2E/DX2                !
 ! R17   R(13,20)                1.4277         estimate D2E/DX2                !
 ! R18   R(13,24)                1.3885         estimate D2E/DX2                !
 ! R19   R(14,15)                1.4523         estimate D2E/DX2                !
 ! R20   R(14,22)                1.3898         estimate D2E/DX2                !
 ! R21   R(15,16)                1.388          estimate D2E/DX2                !
 ! R22   R(16,17)                1.0851         estimate D2E/DX2                !
 ! R23   R(16,18)                1.4221         estimate D2E/DX2                !
 ! R24   R(18,19)                1.0854         estimate D2E/DX2                !
 ! R25   R(18,20)                1.372          estimate D2E/DX2                !
 ! R26   R(20,21)                1.086          estimate D2E/DX2                !
 ! R27   R(22,23)                1.0793         estimate D2E/DX2                !
 ! R28   R(22,26)                1.72           estimate D2E/DX2                !
 ! R29   R(24,25)                1.0811         estimate D2E/DX2                !
 ! R30   R(24,26)                1.7117         estimate D2E/DX2                !
 ! R31   R(27,28)                1.4574         estimate D2E/DX2                !
 ! R32   R(27,35)                1.4524         estimate D2E/DX2                !
 ! R33   R(27,38)                1.3898         estimate D2E/DX2                !
 ! R34   R(28,29)                1.4277         estimate D2E/DX2                !
 ! R35   R(28,36)                1.3885         estimate D2E/DX2                !
 ! R36   R(29,30)                1.086          estimate D2E/DX2                !
 ! R37   R(29,31)                1.372          estimate D2E/DX2                !
 ! R38   R(31,32)                1.0854         estimate D2E/DX2                !
 ! R39   R(31,33)                1.4221         estimate D2E/DX2                !
 ! R40   R(33,34)                1.0851         estimate D2E/DX2                !
 ! R41   R(33,35)                1.388          estimate D2E/DX2                !
 ! R42   R(36,37)                1.0811         estimate D2E/DX2                !
 ! R43   R(36,40)                1.7117         estimate D2E/DX2                !
 ! R44   R(38,39)                1.0792         estimate D2E/DX2                !
 ! R45   R(38,40)                1.72           estimate D2E/DX2                !
 ! A1    A(2,1,3)              113.0872         estimate D2E/DX2                !
 ! A2    A(2,1,12)             120.2564         estimate D2E/DX2                !
 ! A3    A(3,1,12)             124.1002         estimate D2E/DX2                !
 ! A4    A(1,2,5)              102.9749         estimate D2E/DX2                !
 ! A5    A(1,2,9)              123.4361         estimate D2E/DX2                !
 ! A6    A(5,2,9)              133.5611         estimate D2E/DX2                !
 ! A7    A(1,3,4)              106.2827         estimate D2E/DX2                !
 ! A8    A(1,3,15)             122.9961         estimate D2E/DX2                !
 ! A9    A(4,3,15)             130.721          estimate D2E/DX2                !
 ! A10   A(3,4,5)              109.2301         estimate D2E/DX2                !
 ! A11   A(3,4,7)              142.3592         estimate D2E/DX2                !
 ! A12   A(5,4,7)              108.3041         estimate D2E/DX2                !
 ! A13   A(2,5,4)              108.303          estimate D2E/DX2                !
 ! A14   A(2,5,6)              142.3596         estimate D2E/DX2                !
 ! A15   A(4,5,6)              109.2304         estimate D2E/DX2                !
 ! A16   A(5,6,8)              106.2829         estimate D2E/DX2                !
 ! A17   A(5,6,35)             130.7191         estimate D2E/DX2                !
 ! A18   A(8,6,35)             122.9978         estimate D2E/DX2                !
 ! A19   A(4,7,8)              102.9753         estimate D2E/DX2                !
 ! A20   A(4,7,10)             133.5612         estimate D2E/DX2                !
 ! A21   A(8,7,10)             123.4349         estimate D2E/DX2                !
 ! A22   A(6,8,7)              113.0856         estimate D2E/DX2                !
 ! A23   A(6,8,11)             124.0935         estimate D2E/DX2                !
 ! A24   A(7,8,11)             120.2485         estimate D2E/DX2                !
 ! A25   A(14,13,20)           120.3239         estimate D2E/DX2                !
 ! A26   A(14,13,24)           112.4488         estimate D2E/DX2                !
 ! A27   A(20,13,24)           127.1768         estimate D2E/DX2                !
 ! A28   A(13,14,15)           118.6333         estimate D2E/DX2                !
 ! A29   A(13,14,22)           111.2158         estimate D2E/DX2                !
 ! A30   A(15,14,22)           130.1161         estimate D2E/DX2                !
 ! A31   A(3,15,14)            123.1905         estimate D2E/DX2                !
 ! A32   A(3,15,16)            118.6802         estimate D2E/DX2                !
 ! A33   A(14,15,16)           118.1207         estimate D2E/DX2                !
 ! A34   A(15,16,17)           118.9857         estimate D2E/DX2                !
 ! A35   A(15,16,18)           122.3259         estimate D2E/DX2                !
 ! A36   A(17,16,18)           118.6868         estimate D2E/DX2                !
 ! A37   A(16,18,19)           118.5649         estimate D2E/DX2                !
 ! A38   A(16,18,20)           121.1878         estimate D2E/DX2                !
 ! A39   A(19,18,20)           120.2408         estimate D2E/DX2                !
 ! A40   A(13,20,18)           119.2622         estimate D2E/DX2                !
 ! A41   A(13,20,21)           119.6018         estimate D2E/DX2                !
 ! A42   A(18,20,21)           121.1244         estimate D2E/DX2                !
 ! A43   A(14,22,23)           129.2436         estimate D2E/DX2                !
 ! A44   A(14,22,26)           111.8251         estimate D2E/DX2                !
 ! A45   A(23,22,26)           118.7508         estimate D2E/DX2                !
 ! A46   A(13,24,25)           127.8477         estimate D2E/DX2                !
 ! A47   A(13,24,26)           111.4224         estimate D2E/DX2                !
 ! A48   A(25,24,26)           120.7216         estimate D2E/DX2                !
 ! A49   A(22,26,24)            93.0728         estimate D2E/DX2                !
 ! A50   A(28,27,35)           118.6322         estimate D2E/DX2                !
 ! A51   A(28,27,38)           111.2141         estimate D2E/DX2                !
 ! A52   A(35,27,38)           130.1187         estimate D2E/DX2                !
 ! A53   A(27,28,29)           120.325          estimate D2E/DX2                !
 ! A54   A(27,28,36)           112.4495         estimate D2E/DX2                !
 ! A55   A(29,28,36)           127.1751         estimate D2E/DX2                !
 ! A56   A(28,29,30)           119.602          estimate D2E/DX2                !
 ! A57   A(28,29,31)           119.2621         estimate D2E/DX2                !
 ! A58   A(30,29,31)           121.1241         estimate D2E/DX2                !
 ! A59   A(29,31,32)           120.2409         estimate D2E/DX2                !
 ! A60   A(29,31,33)           121.1873         estimate D2E/DX2                !
 ! A61   A(32,31,33)           118.5653         estimate D2E/DX2                !
 ! A62   A(31,33,34)           118.686          estimate D2E/DX2                !
 ! A63   A(31,33,35)           122.3271         estimate D2E/DX2                !
 ! A64   A(34,33,35)           118.9853         estimate D2E/DX2                !
 ! A65   A(6,35,27)            123.1956         estimate D2E/DX2                !
 ! A66   A(6,35,33)            118.6765         estimate D2E/DX2                !
 ! A67   A(27,35,33)           118.1194         estimate D2E/DX2                !
 ! A68   A(28,36,37)           127.8469         estimate D2E/DX2                !
 ! A69   A(28,36,40)           111.4226         estimate D2E/DX2                !
 ! A70   A(37,36,40)           120.7222         estimate D2E/DX2                !
 ! A71   A(27,38,39)           129.2448         estimate D2E/DX2                !
 ! A72   A(27,38,40)           111.826          estimate D2E/DX2                !
 ! A73   A(39,38,40)           118.7487         estimate D2E/DX2                !
 ! A74   A(36,40,38)            93.0725         estimate D2E/DX2                !
 ! D1    D(3,1,2,5)              3.41           estimate D2E/DX2                !
 ! D2    D(3,1,2,9)           -174.9019         estimate D2E/DX2                !
 ! D3    D(12,1,2,5)           166.0074         estimate D2E/DX2                !
 ! D4    D(12,1,2,9)           -12.3046         estimate D2E/DX2                !
 ! D5    D(2,1,3,4)             -2.1206         estimate D2E/DX2                !
 ! D6    D(2,1,3,15)           177.7533         estimate D2E/DX2                !
 ! D7    D(12,1,3,4)          -163.9416         estimate D2E/DX2                !
 ! D8    D(12,1,3,15)           15.9323         estimate D2E/DX2                !
 ! D9    D(1,2,5,4)             -3.3452         estimate D2E/DX2                !
 ! D10   D(1,2,5,6)            172.1884         estimate D2E/DX2                !
 ! D11   D(9,2,5,4)            174.7107         estimate D2E/DX2                !
 ! D12   D(9,2,5,6)             -9.7557         estimate D2E/DX2                !
 ! D13   D(1,3,4,5)             -0.1789         estimate D2E/DX2                !
 ! D14   D(1,3,4,7)           -175.693          estimate D2E/DX2                !
 ! D15   D(15,3,4,5)           179.9606         estimate D2E/DX2                !
 ! D16   D(15,3,4,7)             4.4466         estimate D2E/DX2                !
 ! D17   D(1,3,15,14)           20.8613         estimate D2E/DX2                !
 ! D18   D(1,3,15,16)         -158.0489         estimate D2E/DX2                !
 ! D19   D(4,3,15,14)         -159.2984         estimate D2E/DX2                !
 ! D20   D(4,3,15,16)           21.7914         estimate D2E/DX2                !
 ! D21   D(3,4,5,2)              2.2979         estimate D2E/DX2                !
 ! D22   D(3,4,5,6)           -174.8149         estimate D2E/DX2                !
 ! D23   D(7,4,5,2)            179.414          estimate D2E/DX2                !
 ! D24   D(7,4,5,6)              2.3012         estimate D2E/DX2                !
 ! D25   D(3,4,7,8)            172.1949         estimate D2E/DX2                !
 ! D26   D(3,4,7,10)            -9.7759         estimate D2E/DX2                !
 ! D27   D(5,4,7,8)             -3.3437         estimate D2E/DX2                !
 ! D28   D(5,4,7,10)           174.6854         estimate D2E/DX2                !
 ! D29   D(2,5,6,8)           -175.6944         estimate D2E/DX2                !
 ! D30   D(2,5,6,35)             4.4551         estimate D2E/DX2                !
 ! D31   D(4,5,6,8)             -0.1855         estimate D2E/DX2                !
 ! D32   D(4,5,6,35)           179.964          estimate D2E/DX2                !
 ! D33   D(5,6,8,7)             -2.1126         estimate D2E/DX2                !
 ! D34   D(5,6,8,11)          -163.876          estimate D2E/DX2                !
 ! D35   D(35,6,8,7)           177.7523         estimate D2E/DX2                !
 ! D36   D(35,6,8,11)           15.9888         estimate D2E/DX2                !
 ! D37   D(5,6,35,27)         -159.308          estimate D2E/DX2                !
 ! D38   D(5,6,35,33)           21.7766         estimate D2E/DX2                !
 ! D39   D(8,6,35,27)           20.8632         estimate D2E/DX2                !
 ! D40   D(8,6,35,33)         -158.0522         estimate D2E/DX2                !
 ! D41   D(4,7,8,6)              3.4041         estimate D2E/DX2                !
 ! D42   D(4,7,8,11)           165.9466         estimate D2E/DX2                !
 ! D43   D(10,7,8,6)          -174.8846         estimate D2E/DX2                !
 ! D44   D(10,7,8,11)          -12.3421         estimate D2E/DX2                !
 ! D45   D(20,13,14,15)         -1.8314         estimate D2E/DX2                !
 ! D46   D(20,13,14,22)        176.238          estimate D2E/DX2                !
 ! D47   D(24,13,14,15)       -179.428          estimate D2E/DX2                !
 ! D48   D(24,13,14,22)         -1.3586         estimate D2E/DX2                !
 ! D49   D(14,13,20,18)         -1.4492         estimate D2E/DX2                !
 ! D50   D(14,13,20,21)        179.7776         estimate D2E/DX2                !
 ! D51   D(24,13,20,18)        175.7627         estimate D2E/DX2                !
 ! D52   D(24,13,20,21)         -3.0105         estimate D2E/DX2                !
 ! D53   D(14,13,24,25)       -179.9448         estimate D2E/DX2                !
 ! D54   D(14,13,24,26)          1.106          estimate D2E/DX2                !
 ! D55   D(20,13,24,25)          2.659          estimate D2E/DX2                !
 ! D56   D(20,13,24,26)       -176.2902         estimate D2E/DX2                !
 ! D57   D(13,14,15,3)        -174.7779         estimate D2E/DX2                !
 ! D58   D(13,14,15,16)          4.1381         estimate D2E/DX2                !
 ! D59   D(22,14,15,3)           7.5757         estimate D2E/DX2                !
 ! D60   D(22,14,15,16)       -173.5083         estimate D2E/DX2                !
 ! D61   D(13,14,22,23)       -173.9812         estimate D2E/DX2                !
 ! D62   D(13,14,22,26)          0.9977         estimate D2E/DX2                !
 ! D63   D(15,14,22,23)          3.803          estimate D2E/DX2                !
 ! D64   D(15,14,22,26)        178.7818         estimate D2E/DX2                !
 ! D65   D(3,15,16,17)          -3.918          estimate D2E/DX2                !
 ! D66   D(3,15,16,18)         175.6137         estimate D2E/DX2                !
 ! D67   D(14,15,16,17)        177.1161         estimate D2E/DX2                !
 ! D68   D(14,15,16,18)         -3.3522         estimate D2E/DX2                !
 ! D69   D(15,16,18,19)       -179.0363         estimate D2E/DX2                !
 ! D70   D(15,16,18,20)          0.0393         estimate D2E/DX2                !
 ! D71   D(17,16,18,19)          0.4967         estimate D2E/DX2                !
 ! D72   D(17,16,18,20)        179.5724         estimate D2E/DX2                !
 ! D73   D(16,18,20,13)          2.4054         estimate D2E/DX2                !
 ! D74   D(16,18,20,21)       -178.8407         estimate D2E/DX2                !
 ! D75   D(19,18,20,13)       -178.5343         estimate D2E/DX2                !
 ! D76   D(19,18,20,21)          0.2196         estimate D2E/DX2                !
 ! D77   D(14,22,26,24)         -0.3327         estimate D2E/DX2                !
 ! D78   D(23,22,26,24)        175.2331         estimate D2E/DX2                !
 ! D79   D(13,24,26,22)         -0.4605         estimate D2E/DX2                !
 ! D80   D(25,24,26,22)       -179.4953         estimate D2E/DX2                !
 ! D81   D(35,27,28,29)         -1.8339         estimate D2E/DX2                !
 ! D82   D(35,27,28,36)       -179.4311         estimate D2E/DX2                !
 ! D83   D(38,27,28,29)        176.2301         estimate D2E/DX2                !
 ! D84   D(38,27,28,36)         -1.3671         estimate D2E/DX2                !
 ! D85   D(28,27,35,6)        -174.7745         estimate D2E/DX2                !
 ! D86   D(28,27,35,33)          4.1466         estimate D2E/DX2                !
 ! D87   D(38,27,35,6)           7.5859         estimate D2E/DX2                !
 ! D88   D(38,27,35,33)       -173.4931         estimate D2E/DX2                !
 ! D89   D(28,27,38,39)       -173.9712         estimate D2E/DX2                !
 ! D90   D(28,27,38,40)          1.0072         estimate D2E/DX2                !
 ! D91   D(35,27,38,39)          3.8066         estimate D2E/DX2                !
 ! D92   D(35,27,38,40)        178.785          estimate D2E/DX2                !
 ! D93   D(27,28,29,30)        179.7797         estimate D2E/DX2                !
 ! D94   D(27,28,29,31)         -1.4541         estimate D2E/DX2                !
 ! D95   D(36,28,29,30)         -3.0078         estimate D2E/DX2                !
 ! D96   D(36,28,29,31)        175.7585         estimate D2E/DX2                !
 ! D97   D(27,28,36,37)       -179.9427         estimate D2E/DX2                !
 ! D98   D(27,28,36,40)          1.1096         estimate D2E/DX2                !
 ! D99   D(29,28,36,37)          2.6605         estimate D2E/DX2                !
 ! D100  D(29,28,36,40)       -176.2872         estimate D2E/DX2                !
 ! D101  D(28,29,31,32)       -178.53           estimate D2E/DX2                !
 ! D102  D(28,29,31,33)          2.4115         estimate D2E/DX2                !
 ! D103  D(30,29,31,32)          0.2169         estimate D2E/DX2                !
 ! D104  D(30,29,31,33)       -178.8416         estimate D2E/DX2                !
 ! D105  D(29,31,33,34)        179.5707         estimate D2E/DX2                !
 ! D106  D(29,31,33,35)          0.0397         estimate D2E/DX2                !
 ! D107  D(32,31,33,34)          0.4968         estimate D2E/DX2                !
 ! D108  D(32,31,33,35)       -179.0342         estimate D2E/DX2                !
 ! D109  D(31,33,35,6)         175.6109         estimate D2E/DX2                !
 ! D110  D(31,33,35,27)         -3.36           estimate D2E/DX2                !
 ! D111  D(34,33,35,6)          -3.9188         estimate D2E/DX2                !
 ! D112  D(34,33,35,27)        177.1103         estimate D2E/DX2                !
 ! D113  D(28,36,40,38)         -0.4589         estimate D2E/DX2                !
 ! D114  D(37,36,40,38)       -179.4923         estimate D2E/DX2                !
 ! D115  D(27,38,40,36)         -0.3392         estimate D2E/DX2                !
 ! D116  D(39,38,40,36)        175.2263         estimate D2E/DX2                !
 --------------------------------------------------------------------------------
 Trust Radius=3.00D-01 FncErr=1.00D-07 GrdErr=1.00D-06
 Number of steps in this run= 240 maximum allowed number of steps= 240.
 GradGradGradGradGradGradGradGradGradGradGradGradGradGradGradGradGradGrad

                          Input orientation:                          
 ---------------------------------------------------------------------
 Center     Atomic      Atomic             Coordinates (Angstroms)
 Number     Number       Type             X           Y           Z
 ---------------------------------------------------------------------
      1          7           0        1.565251    1.428878   -0.303400
      2          6           0        0.195596    1.802387   -0.387958
      3          6           0        1.758472    0.048812   -0.335951
      4          6           0        0.493009   -0.520257   -0.395231
      5          6           0       -0.492957    0.520128   -0.395108
      6          6           0       -1.758426   -0.048946   -0.335760
      7          6           0       -0.195514   -1.802517   -0.388249
      8          7           0       -1.565215   -1.429043   -0.303563
      9          8           0       -0.184369    2.967364   -0.467186
     10          8           0        0.184427   -2.967446   -0.468091
     11          1           0       -2.289944   -2.106714   -0.492187
     12          1           0        2.290093    2.106700   -0.491033
     13          6           0        5.549798   -0.554594    0.052169
     14          6           0        4.260413    0.112775    0.178876
     15          6           0        3.074002   -0.566552   -0.311238
     16          6           0        3.214300   -1.858577   -0.798617
     17          1           0        2.330087   -2.396600   -1.124354
     18          6           0        4.479051   -2.501399   -0.896079
     19          1           0        4.520010   -3.507528   -1.301222
     20          6           0        5.630995   -1.865661   -0.507212
     21          1           0        6.598331   -2.350582   -0.599447
     22          6           0        4.389482    1.338542    0.821129
     23          1           0        3.621348    2.025236    1.142404
     24          6           0        6.591735    0.201915    0.571879
     25          1           0        7.642152   -0.051485    0.607096
     26         16           0        6.025598    1.677305    1.229582
     27          6           0       -4.260452   -0.112832    0.179072
     28          6           0       -5.549757    0.554713    0.052403
     29          6           0       -5.630790    1.865892   -0.506719
     30          1           0       -6.598068    2.350942   -0.598890
     31          6           0       -4.478750    2.501634   -0.895292
     32          1           0       -4.519577    3.507874   -1.300170
     33          6           0       -3.214083    1.858659   -0.797897
     34          1           0       -2.329794    2.396690   -1.123421
     35          6           0       -3.073934    0.566464   -0.310888
     36          6           0       -6.591831   -0.201773    0.571875
     37          1           0       -7.642221    0.051750    0.607024
     38          6           0       -4.389722   -1.338630    0.821239
     39          1           0       -3.621715   -2.025406    1.142617
     40         16           0       -6.025927   -1.677315    1.229410
 ---------------------------------------------------------------------
                    Distance matrix (angstroms):
                    1          2          3          4          5
     1  N    0.000000
     2  C    1.422186   0.000000
     3  C    1.393907   2.349534   0.000000
     4  C    2.226491   2.341620   1.388795   0.000000
     5  C    2.251768   1.455453   2.300993   1.433363   0.000000
     6  C    3.637560   2.692278   3.518256   2.301006   1.388805
     7  C    3.680952   3.626058   2.692251   1.455439   2.341623
     8  N    4.238812   3.680994   3.637582   2.251795   2.226519
     9  O    2.335580   1.227934   3.508532   3.553522   2.467668
    10  O    4.611015   4.770519   3.404833   2.467644   3.553498
    11  H    5.234365   4.633556   4.589158   3.204852   3.184162
    12  H    1.009973   2.118997   2.131097   3.184273   3.204962
    13  C    4.465110   5.866562   3.858612   5.076658   6.153858
    14  C    3.037864   4.438336   2.555161   3.863115   4.805197
    15  C    2.501626   3.728670   1.452550   2.582774   3.729759
    16  C    3.711060   4.762759   2.443691   3.059288   4.423213
    17  H    3.986630   4.767580   2.632178   2.725278   4.124158
    18  C    4.928344   6.093336   3.770792   4.479319   5.839646
    19  H    5.839037   6.908676   4.604932   5.095228   6.494066
    20  C    5.236965   6.558381   4.323306   5.312396   6.573229
    21  H    6.301100   7.634585   5.408397   6.377049   7.653045
    22  C    3.041218   4.389274   3.150310   4.485217   5.097769
    23  H    2.583317   3.758650   3.092263   4.316290   4.642930
    24  C    5.247580   6.662837   4.920165   6.217016   7.157457
    25  H    6.320538   7.738099   5.959621   7.234269   8.216517
    26  S    4.722970   6.051529   4.828172   6.170805   6.816908
    27  C    6.045533   4.883232   6.043081   4.805331   3.863203
    28  C    7.177332   5.895735   7.336005   6.153938   5.076681
    29  C    7.212165   5.827942   7.611316   6.573207   5.312331
    30  H    8.220541   6.819038   8.671834   7.653015   6.376973
    31  C    6.166935   4.753509   6.725484   5.839544   4.479185
    32  H    6.506989   5.096437   7.232477   6.493903   5.095040
    33  C    4.824031   3.434695   5.311802   4.423111   3.059155
    34  H    4.096397   2.696608   4.779807   4.123961   2.725050
    35  C    4.718671   3.496180   4.860117   3.729767   2.582766
    36  C    8.364396   7.141926   8.403243   7.157631   6.217110
    37  H    9.354298   8.092348   9.447870   8.216671   7.234336
    38  C    6.662253   5.687995   6.408149   5.098097   4.485450
    39  H    6.397473   5.618409   5.952727   4.643426   4.316650
    40  S    8.344095   7.309689   8.125684   6.817241   6.171027
                    6          7          8          9         10
     6  C    0.000000
     7  C    2.349566   0.000000
     8  N    1.393928   1.422229   0.000000
     9  O    3.404857   4.770547   4.611063   0.000000
    10  O    3.508537   1.227921   2.335594   5.946258   0.000000
    11  H    2.131054   2.118956   1.009975   5.493664   2.619915
    12  H    4.589273   4.633658   5.234503   2.619976   5.493752
    13  C    7.335960   5.895752   7.177368   6.749414   5.905906
    14  C    6.042965   4.883161   6.045485   5.321857   5.149756
    15  C    4.860131   3.496180   4.718716   4.809352   3.760125
    16  C    5.311968   3.434876   4.824245   5.911895   3.243296
    17  H    4.780094   2.696933   4.096736   5.960408   2.315254
    18  C    6.725667   4.753723   6.167185   7.199917   4.340987
    19  H    7.232749   5.096739   6.507333   8.046802   4.447817
    20  C    7.611399   5.828065   7.212319   7.561626   5.557028
    21  H    8.671934   6.819187   8.220722   8.619922   6.444838
    22  C    6.407830   5.687797   6.662047   5.023239   6.155169
    23  H    5.952241   5.618098   6.397132   4.238144   6.271602
    24  C    8.403090   7.141872   8.364344   7.392087   7.223571
    25  H    9.447743   8.092332   9.354281   8.457066   8.079388
    26  S    8.125347   7.309499   8.343882   6.565589   7.653436
    27  C    2.555243   4.438537   3.038034   5.149729   5.322085
    28  C    3.858661   5.866739   4.465263   5.905781   6.749621
    29  C    4.323313   6.558467   5.237057   5.556825   7.561706
    30  H    5.408404   7.634677   6.301199   6.444599   8.620011
    31  C    3.770769   6.093350   4.928392   4.340724   7.199900
    32  H    4.604890   6.908645   5.839061   4.447476   8.046725
    33  C    2.443658   4.762749   3.711080   3.243110   5.911847
    34  H    2.632111   4.767491   3.986600   2.314986   5.960262
    35  C    1.452553   3.728721   2.501666   3.760098   4.809381
    36  C    4.920260   6.663114   5.247804   7.223479   7.392439
    37  H    5.959700   7.738367   6.320753   8.079250   8.457413
    38  C    3.150500   4.389696   3.041578   6.155211   5.023769
    39  H    3.092546   3.759266   2.583849   6.271727   4.238931
    40  S    4.828344   6.051959   4.723304   7.653449   6.566159
                   11         12         13         14         15
    11  H    0.000000
    12  H    6.223311   0.000000
    13  C    8.010428   4.243021   0.000000
    14  C    6.948643   2.882130   1.457378   0.000000
    15  C    5.583615   2.791615   2.502354   1.452332   0.000000
    16  C    5.518349   4.083159   2.806913   2.436406   1.388002
    17  H    4.672083   4.547791   3.891495   3.423672   2.136268
    18  C    6.792510   5.117634   2.415724   2.835002   2.461673
    19  H    6.999449   6.094956   3.407631   3.919780   3.423499
    20  C    7.924620   5.190524   1.427724   2.502683   2.874770
    21  H    8.892267   6.200003   2.179357   3.484218   3.960647
    22  C    7.629503   2.592155   2.349808   1.389839   2.577232
    23  H    7.395152   2.108789   3.400449   2.234792   3.021594
    24  C    9.238302   4.823081   1.388538   2.365895   3.707409
    25  H   10.201908   5.874367   2.222388   3.412699   4.687923
    26  S    9.296856   4.135081   2.567890   2.582173   4.015089
    27  C    2.882543   6.948741   9.821011   8.523851   7.364814
    28  C    4.243366   8.010445  11.154850   9.820934   8.703947
    29  C    5.190671   7.924558  11.453238  10.068732   9.040376
    30  H    6.200162   8.892170  12.507464  11.113997  10.106604
    31  C    5.117640   6.792395  10.526632   9.123237   8.173062
    32  H    6.094891   6.999257  10.941882   9.529035   8.674179
    33  C    4.083096   5.518301   9.129732   7.737589   6.757107
    34  H    4.547603   4.671977   8.495885   7.095285   6.216225
    35  C    2.791664   5.583687   8.703869   7.364669   6.251467
    36  C    4.823615   9.238365  12.157867  10.863912   9.712944
    37  H    5.874870  10.201932  13.217597  11.910488  10.773251
    38  C    2.593089   7.629698  10.000012   8.794546   7.588530
    39  H    2.110168   7.395444   9.352487   8.223658   7.005325
    40  S    4.135922   9.297036  11.689474  10.493657   9.296026
                   16         17         18         19         20
    16  C    0.000000
    17  H    1.085083   0.000000
    18  C    1.422081   2.163594   0.000000
    19  H    2.162529   2.461952   1.085410   0.000000
    20  C    2.434211   3.399817   1.371990   2.135525   0.000000
    21  H    3.425406   4.300646   2.145247   2.480006   1.085999
    22  C    3.771763   4.687995   4.207371   5.292051   3.684123
    23  H    4.360878   5.134022   5.038005   6.114767   4.679636
    24  C    4.186998   5.271729   3.731788   4.643331   2.522366
    25  H    4.984725   6.059333   4.273970   5.033258   2.928766
    26  S    4.951712   5.982852   4.936781   5.962739   3.965447
    27  C    7.737921   7.095754   9.123602   9.529520  10.068968
    28  C    9.130000   8.496290  10.526938  10.942317  11.453410
    29  C    9.601692   9.051291  11.019697  11.512759  11.863907
    30  H   10.679069  10.125573  12.096946  12.586763  12.935924
    31  C    8.843291   8.390794  10.260241  10.828319  11.019565
    32  H    9.426728   9.044978  10.828202  11.442465  11.512505
    33  C    7.425763   6.996544   8.843306   9.426850   9.601586
    34  H    6.996411   6.685067   8.390669   9.044955   9.051050
    35  C    6.757262   6.216504   8.173238   8.674454   9.040440
    36  C   10.039096   9.343184  11.402087  11.743488  12.382666
    37  H   11.112571  10.413406  12.478106  12.815215  13.457201
    38  C    7.792011   7.075342   9.108038   9.412347  10.122120
    39  H    7.108257   6.379725   8.366915   8.628831   9.400005
    40  S    9.461900   8.710944  10.749483  10.998662  11.787076
                   21         22         23         24         25
    21  H    0.000000
    22  C    4.528431   0.000000
    23  H    5.571737   1.079257   0.000000
    24  C    2.808432   2.490776   3.531741   0.000000
    25  H    2.798420   3.543705   4.556993   1.081123   0.000000
    26  S    4.460633   1.720020   2.430859   1.711683   2.447335
    27  C   11.114260   8.794321   8.223267  10.863854  11.910455
    28  C   12.507665   9.999690   9.351989  12.157720  13.217474
    29  C   12.935944  10.121617   9.399311  12.382339  13.456891
    30  H   14.008900  11.125092  10.371820  13.414914  14.491719
    31  C   12.096828   9.107383   8.366047  11.401620  12.477654
    32  H   12.586517   9.411548   8.627806  11.742878  12.814615
    33  C   10.678978   7.791403   7.107435  10.038683  11.112178
    34  H   10.125342   7.074576   6.378717   9.342631  10.412875
    35  C   10.106688   7.588158   7.004775   9.712741  10.773071
    36  C   13.415280  11.091615  10.468720  13.189745  14.234820
    37  H   14.492070  12.102213  11.447675  14.234791  15.284722
    38  C   11.125633   9.178326   8.694595  11.091792  12.102421
    39  H   10.372554   8.694756   8.298775  10.469062  11.448050
    40  S   12.773797  10.850937  10.333749  12.773772  13.778497
                   26         27         28         29         30
    26  S    0.000000
    27  C   10.493378   0.000000
    28  C   11.689089   1.457384   0.000000
    29  C   11.786504   2.502695   1.427716   0.000000
    30  H   12.773177   3.484230   2.179352   1.086000   0.000000
    31  C   10.748764   2.835021   2.415716   1.371989   2.145244
    32  H   10.997788   3.919798   3.407622   2.135524   2.480002
    33  C    9.461251   2.436418   2.806895   2.434196   3.425391
    34  H    8.710150   3.423686   3.891478   3.399800   4.300627
    35  C    9.295617   1.452353   2.502362   2.874783   3.960660
    36  C   12.773528   2.365911   1.388539   2.522341   2.808395
    37  H   13.778218   3.412710   2.222382   2.928718   2.798351
    38  C   10.850875   1.389845   2.349795   3.684112   4.528410
    39  H   10.333841   2.234803   3.400430   4.679625   5.571709
    40  S   12.509705   2.582193   2.567885   3.965425   4.460592
                   31         32         33         34         35
    31  C    0.000000
    32  H    1.085409   0.000000
    33  C    1.422071   2.162522   0.000000
    34  H    2.163578   2.461934   1.085085   0.000000
    35  C    2.461690   3.423515   1.388016   2.136277   0.000000
    36  C    3.731769   4.643304   4.186984   5.271717   3.707433
    37  H    4.273925   5.033199   4.984689   6.059296   4.687935
    38  C    4.207378   5.292054   3.771788   4.688030   2.577284
    39  H    5.038023   6.114781   4.360931   5.134094   3.021677
    40  S    4.936773   5.962722   4.951722   5.982870   4.015137
                   36         37         38         39         40
    36  C    0.000000
    37  H    1.081124   0.000000
    38  C    2.490765   3.543698   0.000000
    39  H    3.531710   4.556962   1.079250   0.000000
    40  S    1.711673   2.447333   1.720023   2.430830   0.000000
 Symmetry turned off by external request.
 Stoichiometry    C22H12N2O2S2(1-,2)
 Framework group  C1[X(C22H12N2O2S2)]
 Deg. of freedom   114
 Full point group                 C1      NOp   1
 Rotational constants (GHZ):      0.4081022      0.0686708      0.0615688
 Standard basis: 6-31+G(d,p) (6D, 7F)
 Integral buffers will be    131072 words long.
 Raffenetti 2 integral format.
 Two-electron integral symmetry is turned off.
   600 basis functions,  1028 primitive gaussians,   600 cartesian basis functions
   104 alpha electrons      103 beta electrons
       nuclear repulsion energy      2591.8106419842 Hartrees.
 NAtoms=   40 NActive=   40 NUniq=   40 SFac= 7.50D-01 NAtFMM=   80 NAOKFM=F Big=F
 One-electron integrals computed using PRISM.
 NBasis=   600 RedAO= T  NBF=   600
 NBsUse=   590 1.00D-06 NBFU=   590
 Harris functional with IExCor=  402 diagonalized for initial guess.
 ExpMin= 4.05D-02 ExpMax= 2.19D+04 ExpMxC= 3.30D+03 IAcc=2 IRadAn=         0 AccDes= 0.00D+00
 HarFok:  IExCor=  402 AccDes= 0.00D+00 IRadAn=         0 IDoV= 1
 ScaDFX=  1.000000  1.000000  1.000000  1.000000
 FoFCou: FMM=F IPFlag=           0 FMFlag=      100000 FMFlg1=           0
         NFxFlg=           0 DoJE=T BraDBF=F KetDBF=T FulRan=T
         Omega=  0.000000  0.000000  1.000000  0.000000  0.000000 ICntrl=     500 IOpCl=  0
         NMat0=    1 NMatS0=    1 NMatT0=    0 NMatD0=    1 NMtDS0=    0 NMtDT0=    0
         I1Cent=           4 NGrid=           0.
 Symmetry not used in FoFCou.
 Initial guess <Sx>= 0.0000 <Sy>= 0.0000 <Sz>= 0.5000 <S**2>= 0.7500 S= 0.5000
 Requested convergence on RMS density matrix=1.00D-08 within 128 cycles.
 Requested convergence on MAX density matrix=1.00D-06.
 Requested convergence on             energy=1.00D-06.
 No special actions if energy rises.
 EnCoef did     2 forward-backward iterations
 EnCoef did     3 forward-backward iterations
 Restarting incremental Fock formation.
 SCF Done:  E(UB3LYP) =  -1902.01804974     A.U. after   26 cycles
             Convg  =    0.9247D-08             -V/T =  2.0068
 <Sx>= 0.0000 <Sy>= 0.0000 <Sz>= 0.5000 <S**2>= 0.7897 S= 0.5197
 <L.S>= 0.000000000000E+00
 Annihilation of the first spin contaminant:
 S**2 before annihilation     0.7897,   after     0.7511
 DiagDN has N=   600 LTot=  1832 but NE2=     3 cannot use DSYEVD.

 **********************************************************************

            Population analysis using the SCF density.

 **********************************************************************

 Alpha  occ. eigenvalues --  -88.83402 -88.83401 -19.00975 -19.00974 -14.26482
 Alpha  occ. eigenvalues --  -14.26481 -10.17643 -10.17643 -10.12974 -10.12974
 Alpha  occ. eigenvalues --  -10.12706 -10.12705 -10.12665 -10.12664 -10.11733
 Alpha  occ. eigenvalues --  -10.11733 -10.11338 -10.11338 -10.10612 -10.10612
 Alpha  occ. eigenvalues --  -10.09544 -10.09544 -10.09476 -10.09476 -10.08269
 Alpha  occ. eigenvalues --  -10.08268 -10.06967 -10.06923  -7.89355  -7.89355
 Alpha  occ. eigenvalues --   -5.85744  -5.85744  -5.85376  -5.85375  -5.85151
 Alpha  occ. eigenvalues --   -5.85151  -0.92721  -0.92266  -0.85377  -0.84098
 Alpha  occ. eigenvalues --   -0.80434  -0.80390  -0.73798  -0.73783  -0.68753
 Alpha  occ. eigenvalues --   -0.68573  -0.68327  -0.64424  -0.64288  -0.63202
 Alpha  occ. eigenvalues --   -0.62032  -0.59175  -0.56924  -0.55657  -0.52312
 Alpha  occ. eigenvalues --   -0.51293  -0.49432  -0.48883  -0.48663  -0.48015
 Alpha  occ. eigenvalues --   -0.44746  -0.43294  -0.42507  -0.42119  -0.39148
 Alpha  occ. eigenvalues --   -0.38484  -0.37373  -0.36690  -0.36529  -0.35328
 Alpha  occ. eigenvalues --   -0.35057  -0.34406  -0.33428  -0.32527  -0.32205
 Alpha  occ. eigenvalues --   -0.31945  -0.31685  -0.31371  -0.31255  -0.31182
 Alpha  occ. eigenvalues --   -0.31066  -0.29857  -0.27071  -0.26624  -0.26595
 Alpha  occ. eigenvalues --   -0.26201  -0.26165  -0.25650  -0.25173  -0.25062
 Alpha  occ. eigenvalues --   -0.24161  -0.22900  -0.22453  -0.18890  -0.18626
 Alpha  occ. eigenvalues --   -0.16185  -0.16019  -0.15678  -0.14638  -0.14126
 Alpha  occ. eigenvalues --   -0.12441  -0.11840  -0.07985  -0.02380
 Alpha virt. eigenvalues --    0.02378   0.04740   0.07726   0.07788   0.08622
 Alpha virt. eigenvalues --    0.08660   0.08933   0.09203   0.09253   0.10719
 Alpha virt. eigenvalues --    0.10835   0.11053   0.11084   0.11224   0.11326
 Alpha virt. eigenvalues --    0.11485   0.12300   0.12704   0.12993   0.13088
 Alpha virt. eigenvalues --    0.13655   0.13828   0.14115   0.14282   0.14551
 Alpha virt. eigenvalues --    0.14758   0.15440   0.15766   0.16078   0.16525
 Alpha virt. eigenvalues --    0.17207   0.17742   0.17808   0.18004   0.18338
 Alpha virt. eigenvalues --    0.18460   0.18708   0.18740   0.19634   0.19706
 Alpha virt. eigenvalues --    0.19830   0.20120   0.20841   0.20965   0.21333
 Alpha virt. eigenvalues --    0.21732   0.22550   0.22806   0.22864   0.22865
 Alpha virt. eigenvalues --    0.23244   0.23312   0.23874   0.24103   0.24408
 Alpha virt. eigenvalues --    0.25039   0.25298   0.25515   0.25599   0.25930
 Alpha virt. eigenvalues --    0.25947   0.26217   0.26656   0.26696   0.27044
 Alpha virt. eigenvalues --    0.27324   0.27420   0.27880   0.27962   0.28161
 Alpha virt. eigenvalues --    0.28316   0.28600   0.28737   0.28975   0.29090
 Alpha virt. eigenvalues --    0.29439   0.29993   0.30159   0.30381   0.30951
 Alpha virt. eigenvalues --    0.31300   0.31550   0.31928   0.31980   0.32641
 Alpha virt. eigenvalues --    0.32881   0.32962   0.33090   0.33110   0.33368
 Alpha virt. eigenvalues --    0.33477   0.34010   0.34054   0.34715   0.35093
 Alpha virt. eigenvalues --    0.35514   0.35628   0.35750   0.36078   0.36466
 Alpha virt. eigenvalues --    0.36790   0.37027   0.37106   0.37323   0.37367
 Alpha virt. eigenvalues --    0.38037   0.38451   0.38609   0.38836   0.39549
 Alpha virt. eigenvalues --    0.39745   0.39782   0.40059   0.40578   0.40795
 Alpha virt. eigenvalues --    0.40905   0.41432   0.42194   0.42384   0.43145
 Alpha virt. eigenvalues --    0.43610   0.43672   0.43684   0.44206   0.44280
 Alpha virt. eigenvalues --    0.44737   0.44927   0.45945   0.46085   0.46784
 Alpha virt. eigenvalues --    0.47391   0.47761   0.48416   0.49318   0.49960
 Alpha virt. eigenvalues --    0.50100   0.51352   0.51384   0.51623   0.52314
 Alpha virt. eigenvalues --    0.54141   0.54659   0.55259   0.55662   0.56025
 Alpha virt. eigenvalues --    0.56738   0.57666   0.58781   0.58895   0.59430
 Alpha virt. eigenvalues --    0.60345   0.60560   0.61953   0.62160   0.63424
 Alpha virt. eigenvalues --    0.64067   0.64975   0.68591   0.68694   0.69146
 Alpha virt. eigenvalues --    0.69602   0.70754   0.71017   0.72274   0.72292
 Alpha virt. eigenvalues --    0.73848   0.74179   0.75281   0.75652   0.75766
 Alpha virt. eigenvalues --    0.77103   0.77475   0.78833   0.79013   0.79527
 Alpha virt. eigenvalues --    0.79846   0.81294   0.82397   0.82696   0.83497
 Alpha virt. eigenvalues --    0.84252   0.84574   0.85234   0.85337   0.85658
 Alpha virt. eigenvalues --    0.86046   0.86134   0.86508   0.86971   0.87128
 Alpha virt. eigenvalues --    0.88734   0.88824   0.90148   0.91005   0.91039
 Alpha virt. eigenvalues --    0.91192   0.91610   0.92184   0.92268   0.93573
 Alpha virt. eigenvalues --    0.93868   0.94284   0.95297   0.95498   0.95872
 Alpha virt. eigenvalues --    0.97509   0.98344   0.98897   0.99253   0.99616
 Alpha virt. eigenvalues --    0.99905   1.00405   1.00509   1.01511   1.02520
 Alpha virt. eigenvalues --    1.03281   1.03495   1.04202   1.06561   1.06714
 Alpha virt. eigenvalues --    1.07385   1.07886   1.08057   1.08186   1.09931
 Alpha virt. eigenvalues --    1.11334   1.11830   1.12470   1.13155   1.13700
 Alpha virt. eigenvalues --    1.14375   1.14820   1.15804   1.17666   1.18223
 Alpha virt. eigenvalues --    1.19321   1.20089   1.20696   1.21166   1.21666
 Alpha virt. eigenvalues --    1.22441   1.22578   1.23375   1.23531   1.25903
 Alpha virt. eigenvalues --    1.26300   1.26419   1.27320   1.29405   1.29982
 Alpha virt. eigenvalues --    1.30658   1.31186   1.31640   1.31787   1.32798
 Alpha virt. eigenvalues --    1.33317   1.34025   1.35191   1.35476   1.37098
 Alpha virt. eigenvalues --    1.37635   1.38209   1.39107   1.40143   1.40706
 Alpha virt. eigenvalues --    1.40866   1.40989   1.41668   1.42756   1.43024
 Alpha virt. eigenvalues --    1.43147   1.44207   1.44319   1.45152   1.46098
 Alpha virt. eigenvalues --    1.46202   1.46570   1.48244   1.48618   1.48864
 Alpha virt. eigenvalues --    1.49553   1.50534   1.51302   1.52039   1.53927
 Alpha virt. eigenvalues --    1.53930   1.54142   1.54622   1.55281   1.56607
 Alpha virt. eigenvalues --    1.57163   1.59094   1.59255   1.59410   1.60908
 Alpha virt. eigenvalues --    1.62419   1.64951   1.65179   1.67373   1.71212
 Alpha virt. eigenvalues --    1.72390   1.74215   1.74314   1.74524   1.76587
 Alpha virt. eigenvalues --    1.78272   1.78564   1.80563   1.82265   1.84058
 Alpha virt. eigenvalues --    1.84596   1.85168   1.88057   1.89195   1.89815
 Alpha virt. eigenvalues --    1.90361   1.91781   1.92993   1.93405   1.94750
 Alpha virt. eigenvalues --    1.94891   1.95074   1.97266   1.97642   1.97877
 Alpha virt. eigenvalues --    1.98179   1.99347   1.99795   2.00999   2.02249
 Alpha virt. eigenvalues --    2.03189   2.05793   2.05873   2.06359   2.07134
 Alpha virt. eigenvalues --    2.07154   2.08718   2.08764   2.09742   2.09823
 Alpha virt. eigenvalues --    2.10701   2.12488   2.13060   2.15376   2.15713
 Alpha virt. eigenvalues --    2.16253   2.17305   2.17555   2.19473   2.20066
 Alpha virt. eigenvalues --    2.22523   2.23098   2.24242   2.24361   2.25840
 Alpha virt. eigenvalues --    2.25927   2.27409   2.28867   2.30327   2.32050
 Alpha virt. eigenvalues --    2.32094   2.32656   2.34459   2.37672   2.37736
 Alpha virt. eigenvalues --    2.38176   2.38522   2.39972   2.41025   2.41255
 Alpha virt. eigenvalues --    2.42282   2.43113   2.43565   2.44595   2.45218
 Alpha virt. eigenvalues --    2.45823   2.46008   2.49628   2.49744   2.50666
 Alpha virt. eigenvalues --    2.51228   2.51951   2.53482   2.54685   2.55492
 Alpha virt. eigenvalues --    2.57406   2.59386   2.59449   2.59909   2.60624
 Alpha virt. eigenvalues --    2.60840   2.62515   2.63712   2.64796   2.65955
 Alpha virt. eigenvalues --    2.66195   2.66270   2.66880   2.68020   2.69215
 Alpha virt. eigenvalues --    2.69220   2.69989   2.70415   2.70601   2.73295
 Alpha virt. eigenvalues --    2.74171   2.75808   2.76052   2.77280   2.77652
 Alpha virt. eigenvalues --    2.79290   2.79854   2.80492   2.82573   2.84148
 Alpha virt. eigenvalues --    2.84319   2.84605   2.85418   2.86285   2.90426
 Alpha virt. eigenvalues --    2.91469   2.94037   2.96688   2.96990   2.97644
 Alpha virt. eigenvalues --    2.98673   3.00217   3.04703   3.05074   3.09409
 Alpha virt. eigenvalues --    3.09655   3.12070   3.14878   3.17389   3.17920
 Alpha virt. eigenvalues --    3.19264   3.21340   3.25484   3.30917   3.32440
 Alpha virt. eigenvalues --    3.35845   3.38279   3.39666   3.39824   3.40222
 Alpha virt. eigenvalues --    3.41663   3.48516   3.51648   3.51819   3.54401
 Alpha virt. eigenvalues --    3.55390   3.58192   3.63608   3.63994   3.67661
 Alpha virt. eigenvalues --    3.68993   3.90887   3.91043   4.07603   4.07826
 Alpha virt. eigenvalues --    4.35514   4.39038   4.39342   4.39434   4.42096
 Alpha virt. eigenvalues --    4.42817   4.43579   4.47989   4.48590   4.49818
 Alpha virt. eigenvalues --    4.51296   4.52916   4.54874   4.56027   4.56950
 Alpha virt. eigenvalues --    4.61658   4.63516   4.66450   4.66620   4.71484
 Alpha virt. eigenvalues --    4.79456   4.87540   4.99094   4.99111   5.10373
 Alpha virt. eigenvalues --    5.19190
  Beta  occ. eigenvalues --  -88.83385 -88.83385 -19.00846 -19.00846 -14.26491
  Beta  occ. eigenvalues --  -14.26490 -10.17597 -10.17596 -10.12752 -10.12751
  Beta  occ. eigenvalues --  -10.12694 -10.12693 -10.12524 -10.12523 -10.11703
  Beta  occ. eigenvalues --  -10.11703 -10.11402 -10.11401 -10.10688 -10.10688
  Beta  occ. eigenvalues --  -10.09605 -10.09604 -10.09255 -10.09255 -10.08032
  Beta  occ. eigenvalues --  -10.08032 -10.07019 -10.06975  -7.89339  -7.89338
  Beta  occ. eigenvalues --   -5.85736  -5.85735  -5.85368  -5.85367  -5.85094
  Beta  occ. eigenvalues --   -5.85094  -0.92519  -0.92055  -0.85185  -0.83909
  Beta  occ. eigenvalues --   -0.80361  -0.80316  -0.73604  -0.73589  -0.68741
  Beta  occ. eigenvalues --   -0.68345  -0.68125  -0.64291  -0.64163  -0.63006
  Beta  occ. eigenvalues --   -0.61861  -0.58869  -0.56389  -0.55556  -0.52106
  Beta  occ. eigenvalues --   -0.51118  -0.49329  -0.48822  -0.48605  -0.47885
  Beta  occ. eigenvalues --   -0.44648  -0.43171  -0.42400  -0.42090  -0.38969
  Beta  occ. eigenvalues --   -0.38310  -0.37255  -0.36598  -0.36461  -0.35201
  Beta  occ. eigenvalues --   -0.34904  -0.34007  -0.33329  -0.32420  -0.32142
  Beta  occ. eigenvalues --   -0.31890  -0.31601  -0.31221  -0.31085  -0.30989
  Beta  occ. eigenvalues --   -0.30839  -0.29448  -0.26968  -0.26529  -0.26503
  Beta  occ. eigenvalues --   -0.26113  -0.26067  -0.25037  -0.24909  -0.24867
  Beta  occ. eigenvalues --   -0.23797  -0.22170  -0.21670  -0.18462  -0.18220
  Beta  occ. eigenvalues --   -0.15905  -0.15599  -0.15384  -0.14698  -0.14019
  Beta  occ. eigenvalues --   -0.11875  -0.11279  -0.06792
  Beta virt. eigenvalues --    0.01833   0.03443   0.05652   0.07743   0.07809
  Beta virt. eigenvalues --    0.08674   0.08791   0.09204   0.09257   0.09462
  Beta virt. eigenvalues --    0.10857   0.10968   0.11199   0.11229   0.11338
  Beta virt. eigenvalues --    0.11477   0.11631   0.12386   0.12864   0.13105
  Beta virt. eigenvalues --    0.13105   0.13834   0.13847   0.14245   0.14298
  Beta virt. eigenvalues --    0.14720   0.14849   0.15492   0.15855   0.16110
  Beta virt. eigenvalues --    0.16535   0.17275   0.17865   0.17921   0.18043
  Beta virt. eigenvalues --    0.18345   0.18571   0.18775   0.18786   0.19662
  Beta virt. eigenvalues --    0.19736   0.19895   0.20188   0.20932   0.20972
  Beta virt. eigenvalues --    0.21351   0.22048   0.22750   0.22897   0.22902
  Beta virt. eigenvalues --    0.23067   0.23314   0.23386   0.23994   0.24290
  Beta virt. eigenvalues --    0.24471   0.25089   0.25335   0.25527   0.25632
  Beta virt. eigenvalues --    0.25969   0.25971   0.26317   0.26706   0.26800
  Beta virt. eigenvalues --    0.27086   0.27409   0.27465   0.27961   0.28021
  Beta virt. eigenvalues --    0.28221   0.28594   0.28687   0.28916   0.29055
  Beta virt. eigenvalues --    0.29197   0.29466   0.30040   0.30361   0.30427
  Beta virt. eigenvalues --    0.30969   0.31375   0.31636   0.31959   0.32026
  Beta virt. eigenvalues --    0.32702   0.32894   0.33029   0.33144   0.33182
  Beta virt. eigenvalues --    0.33457   0.33587   0.34114   0.34149   0.34796
  Beta virt. eigenvalues --    0.35146   0.35586   0.35760   0.35806   0.36097
  Beta virt. eigenvalues --    0.36504   0.36883   0.37111   0.37183   0.37387
  Beta virt. eigenvalues --    0.37440   0.38090   0.38528   0.38647   0.38946
  Beta virt. eigenvalues --    0.39603   0.39827   0.39865   0.40143   0.40578
  Beta virt. eigenvalues --    0.40889   0.40964   0.41515   0.42253   0.42492
  Beta virt. eigenvalues --    0.43206   0.43708   0.43736   0.43738   0.44297
  Beta virt. eigenvalues --    0.44329   0.44796   0.45064   0.46038   0.46165
  Beta virt. eigenvalues --    0.46864   0.47495   0.47834   0.48504   0.49424
  Beta virt. eigenvalues --    0.50085   0.50149   0.51427   0.51438   0.51690
  Beta virt. eigenvalues --    0.52353   0.54270   0.54742   0.55314   0.55730
  Beta virt. eigenvalues --    0.56068   0.56797   0.57706   0.58886   0.58988
  Beta virt. eigenvalues --    0.59522   0.60467   0.60680   0.62042   0.62208
  Beta virt. eigenvalues --    0.63459   0.64112   0.65065   0.68700   0.68833
  Beta virt. eigenvalues --    0.69210   0.69662   0.70802   0.71074   0.72373
  Beta virt. eigenvalues --    0.72384   0.74257   0.74590   0.75383   0.75678
  Beta virt. eigenvalues --    0.75841   0.77166   0.77608   0.79012   0.79129
  Beta virt. eigenvalues --    0.79791   0.80123   0.81369   0.82469   0.82819
  Beta virt. eigenvalues --    0.83903   0.84624   0.84900   0.85432   0.85450
  Beta virt. eigenvalues --    0.85849   0.86135   0.86264   0.86594   0.87059
  Beta virt. eigenvalues --    0.87546   0.89058   0.89152   0.90360   0.91175
  Beta virt. eigenvalues --    0.91346   0.91467   0.91837   0.92393   0.92445
  Beta virt. eigenvalues --    0.93643   0.93956   0.94309   0.95345   0.95550
  Beta virt. eigenvalues --    0.96046   0.97706   0.98433   0.99008   0.99410
  Beta virt. eigenvalues --    0.99765   0.99959   1.00523   1.00595   1.01584
  Beta virt. eigenvalues --    1.02575   1.03398   1.03566   1.04333   1.06632
  Beta virt. eigenvalues --    1.06797   1.07443   1.07964   1.08101   1.08252
  Beta virt. eigenvalues --    1.09988   1.11388   1.11926   1.12580   1.13218
  Beta virt. eigenvalues --    1.13802   1.14439   1.14918   1.15919   1.17718
  Beta virt. eigenvalues --    1.18341   1.19415   1.20212   1.20834   1.21275
  Beta virt. eigenvalues --    1.21743   1.22571   1.22692   1.23445   1.23597
  Beta virt. eigenvalues --    1.25930   1.26340   1.26500   1.27397   1.29561
  Beta virt. eigenvalues --    1.30045   1.30744   1.31294   1.31846   1.31932
  Beta virt. eigenvalues --    1.32928   1.33442   1.34193   1.35405   1.35654
  Beta virt. eigenvalues --    1.37237   1.37918   1.38489   1.39315   1.40403
  Beta virt. eigenvalues --    1.40888   1.41091   1.41267   1.41876   1.42837
  Beta virt. eigenvalues --    1.43099   1.43348   1.44320   1.44473   1.45339
  Beta virt. eigenvalues --    1.46244   1.46406   1.46699   1.48351   1.48760
  Beta virt. eigenvalues --    1.48989   1.49713   1.50813   1.51521   1.52238
  Beta virt. eigenvalues --    1.54086   1.54250   1.54352   1.54846   1.55486
  Beta virt. eigenvalues --    1.56738   1.57264   1.59181   1.59358   1.59479
  Beta virt. eigenvalues --    1.60985   1.62478   1.65077   1.65284   1.67490
  Beta virt. eigenvalues --    1.71349   1.72511   1.74367   1.74464   1.74716
  Beta virt. eigenvalues --    1.76826   1.78546   1.78849   1.80711   1.82366
  Beta virt. eigenvalues --    1.84238   1.84713   1.85273   1.88182   1.89458
  Beta virt. eigenvalues --    1.90040   1.90575   1.91949   1.93162   1.93593
  Beta virt. eigenvalues --    1.94909   1.95038   1.95306   1.97497   1.97735
  Beta virt. eigenvalues --    1.98046   1.98315   1.99598   1.99972   2.01206
  Beta virt. eigenvalues --    2.02409   2.03328   2.05968   2.06067   2.06509
  Beta virt. eigenvalues --    2.07223   2.07233   2.08851   2.08930   2.09894
  Beta virt. eigenvalues --    2.10122   2.10956   2.12733   2.13192   2.15610
  Beta virt. eigenvalues --    2.15798   2.16224   2.17426   2.17740   2.19539
  Beta virt. eigenvalues --    2.20204   2.22670   2.23214   2.24395   2.24614
  Beta virt. eigenvalues --    2.25993   2.26074   2.27548   2.28992   2.30429
  Beta virt. eigenvalues --    2.32281   2.32317   2.32818   2.34710   2.37882
  Beta virt. eigenvalues --    2.37988   2.38448   2.38688   2.40279   2.41259
  Beta virt. eigenvalues --    2.41426   2.42441   2.43264   2.43801   2.44783
  Beta virt. eigenvalues --    2.45375   2.46125   2.46179   2.49798   2.49899
  Beta virt. eigenvalues --    2.50747   2.51375   2.52283   2.53809   2.54752
  Beta virt. eigenvalues --    2.55681   2.57494   2.59454   2.59542   2.60077
  Beta virt. eigenvalues --    2.60888   2.61096   2.62691   2.63816   2.64843
  Beta virt. eigenvalues --    2.65978   2.66233   2.66412   2.66967   2.68155
  Beta virt. eigenvalues --    2.69250   2.69363   2.70130   2.70577   2.70839
  Beta virt. eigenvalues --    2.73514   2.74291   2.76049   2.76284   2.77302
  Beta virt. eigenvalues --    2.77850   2.79485   2.79973   2.80684   2.82834
  Beta virt. eigenvalues --    2.84374   2.84491   2.84881   2.85607   2.86517
  Beta virt. eigenvalues --    2.90684   2.91647   2.94155   2.96744   2.97140
  Beta virt. eigenvalues --    2.97686   2.98752   3.00329   3.04668   3.05206
  Beta virt. eigenvalues --    3.09570   3.09848   3.12131   3.14942   3.17442
  Beta virt. eigenvalues --    3.18019   3.19372   3.21440   3.25579   3.31011
  Beta virt. eigenvalues --    3.32572   3.35921   3.38321   3.39708   3.39853
  Beta virt. eigenvalues --    3.40289   3.41735   3.48572   3.51678   3.51856
  Beta virt. eigenvalues --    3.54489   3.55487   3.58259   3.63648   3.64037
  Beta virt. eigenvalues --    3.67708   3.69025   3.90980   3.91136   4.07656
  Beta virt. eigenvalues --    4.07879   4.35561   4.39146   4.39428   4.39517
  Beta virt. eigenvalues --    4.42170   4.42898   4.43656   4.48100   4.48830
  Beta virt. eigenvalues --    4.50049   4.51459   4.53296   4.54992   4.56081
  Beta virt. eigenvalues --    4.56924   4.61954   4.63766   4.66525   4.66683
  Beta virt. eigenvalues --    4.71749   4.79742   4.87666   4.99246   4.99271
  Beta virt. eigenvalues --    5.10509   5.19331
          Condensed to atoms (all electrons):
              1          2          3          4          5          6
     1  N    7.561008   0.404800   0.115146  -0.053753  -0.171930  -0.129672
     2  C    0.404800  10.380992   1.988419  -0.054740  -5.427451  -1.328313
     3  C    0.115146   1.988419  11.505094   1.963770  -4.889077  -3.079585
     4  C   -0.053753  -0.054740   1.963770  17.833870   1.117081  -4.884267
     5  C   -0.171930  -5.427451  -4.889077   1.117081  17.838825   1.964078
     6  C   -0.129672  -1.328313  -3.079585  -4.884267   1.964078  11.501111
     7  C   -0.215499  -0.491516  -1.329583  -5.423974  -0.053590   1.986330
     8  N   -0.006067  -0.215622  -0.129973  -0.171480  -0.053335   0.115146
     9  O   -0.136481   0.249179  -0.151989  -0.078794  -0.060095   0.186871
    10  O   -0.003721   0.042159   0.186931  -0.060034  -0.078928  -0.152026
    11  H    0.000754   0.008814   0.014102   0.162857   0.047228  -0.081378
    12  H    0.294045  -0.100653  -0.081399   0.047274   0.162823   0.014107
    13  C   -0.090593   0.113206   0.117402  -0.486651  -0.278596  -0.122886
    14  C   -0.064688   0.176314  -0.014723   0.315171  -0.490428  -0.059763
    15  C   -0.101802   0.608522   1.223705   0.417128  -0.866318  -0.766511
    16  C   -0.064666   0.156236   0.830818  -0.195049  -1.314431  -0.532313
    17  H    0.000959   0.000282  -0.026092  -0.040281  -0.020517   0.004214
    18  C    0.044411  -0.068807  -0.702891  -0.083534   0.007921  -0.069221
    19  H    0.000026   0.000071  -0.003298  -0.005251  -0.001108  -0.000155
    20  C    0.025203  -0.035308  -0.200727   0.085256  -0.077625  -0.024750
    21  H   -0.000027   0.000004  -0.000713   0.002180  -0.000045   0.000020
    22  C    0.122504   0.202679  -0.147858  -0.486077  -0.160762  -0.104612
    23  H    0.000203   0.004141  -0.000801   0.006091   0.008170   0.002229
    24  C   -0.041804   0.035000   0.106432  -0.151437  -0.049048  -0.007466
    25  H   -0.000056   0.000005  -0.000562   0.000014  -0.000080  -0.000001
    26  S    0.021243  -0.005267  -0.009521   0.039254   0.021597   0.015698
    27  C   -0.005124  -0.034661  -0.060227  -0.491750   0.314986  -0.014298
    28  C   -0.007840  -0.060057  -0.123032  -0.279100  -0.486838   0.117710
    29  C    0.003618  -0.103198  -0.024816  -0.077781   0.084831  -0.200988
    30  H    0.000000  -0.000088   0.000020  -0.000044   0.002182  -0.000705
    31  C    0.010412  -0.370815  -0.069438   0.007124  -0.084299  -0.704208
    32  H    0.000001  -0.000604  -0.000155  -0.001110  -0.005255  -0.003307
    33  C   -0.004845  -0.446182  -0.532673  -1.314086  -0.193987   0.830886
    34  H    0.002134   0.042129   0.004219  -0.020506  -0.040328  -0.026181
    35  C   -0.060611  -0.039638  -0.767047  -0.865844   0.418221   1.224252
    36  C   -0.000930   0.004263  -0.007472  -0.049108  -0.151385   0.106636
    37  H    0.000000  -0.000005  -0.000001  -0.000080   0.000014  -0.000564
    38  C   -0.002134  -0.063996  -0.104340  -0.159715  -0.485804  -0.149688
    39  H    0.000013   0.001850   0.002233   0.008270   0.006103  -0.000870
    40  S    0.000236   0.015963   0.015722   0.021813   0.039338  -0.009538
              7          8          9         10         11         12
     1  N   -0.215499  -0.006067  -0.136481  -0.003721   0.000754   0.294045
     2  C   -0.491516  -0.215622   0.249179   0.042159   0.008814  -0.100653
     3  C   -1.329583  -0.129973  -0.151989   0.186931   0.014102  -0.081399
     4  C   -5.423974  -0.171480  -0.078794  -0.060034   0.162857   0.047274
     5  C   -0.053590  -0.053335  -0.060095  -0.078928   0.047228   0.162823
     6  C    1.986330   0.115146   0.186871  -0.152026  -0.081378   0.014107
     7  C   10.378263   0.404331   0.042176   0.249202  -0.100742   0.008817
     8  N    0.404331   7.560979  -0.003721  -0.136494   0.294117   0.000754
     9  O    0.042176  -0.003721   8.573747  -0.000087  -0.000008   0.003457
    10  O    0.249202  -0.136494  -0.000087   8.573651   0.003460  -0.000008
    11  H   -0.100742   0.294117  -0.000008   0.003460   0.420525   0.000000
    12  H    0.008817   0.000754   0.003457  -0.000008   0.000000   0.420609
    13  C   -0.059948  -0.007830  -0.004198   0.003843   0.000024  -0.013587
    14  C   -0.034470  -0.005131  -0.014914  -0.006976   0.000120  -0.025471
    15  C   -0.039100  -0.060621  -0.004721   0.118505   0.000728  -0.037224
    16  C   -0.445774  -0.004828  -0.003162  -0.015286   0.002526  -0.024808
    17  H    0.042074   0.002130   0.000005  -0.007518  -0.000006   0.000004
    18  C   -0.370547   0.010414   0.002999  -0.082358   0.000235  -0.000396
    19  H   -0.000603   0.000001   0.000000   0.000246   0.000000   0.000000
    20  C   -0.103027   0.003628   0.000234  -0.007266   0.000034  -0.000559
    21  H   -0.000088   0.000000   0.000000   0.000005   0.000000   0.000000
    22  C   -0.064189  -0.002167   0.006570  -0.000320  -0.000016   0.034618
    23  H    0.001842   0.000013   0.000145   0.000000   0.000000   0.002654
    24  C    0.004248  -0.000930  -0.001144   0.000557   0.000000  -0.001989
    25  H   -0.000005   0.000000   0.000000   0.000000   0.000000   0.000000
    26  S    0.015933   0.000234   0.000473  -0.000216  -0.000001   0.001023
    27  C    0.176867  -0.064619  -0.007012  -0.014932  -0.025457   0.000120
    28  C    0.113493  -0.090631   0.003861  -0.004202  -0.013564   0.000024
    29  C   -0.035237   0.025206  -0.007270   0.000234  -0.000558   0.000034
    30  H    0.000004  -0.000027   0.000005   0.000000   0.000000   0.000000
    31  C   -0.068623   0.044436  -0.082485   0.002999  -0.000397   0.000235
    32  H    0.000071   0.000026   0.000247   0.000000   0.000000   0.000000
    33  C    0.156336  -0.064494  -0.015351  -0.003167  -0.024767   0.002527
    34  H    0.000274   0.000957  -0.007528   0.000005   0.000004  -0.000006
    35  C    0.608290  -0.101896   0.118591  -0.004724  -0.037191   0.000729
    36  C    0.035005  -0.041786   0.000558  -0.001144  -0.001978   0.000000
    37  H    0.000005  -0.000056   0.000000   0.000000   0.000000   0.000000
    38  C    0.201948   0.122472  -0.000339   0.006588   0.034547  -0.000015
    39  H    0.004065   0.000281   0.000000   0.000145   0.002626   0.000000
    40  S   -0.005381   0.021253  -0.000216   0.000475   0.001008  -0.000001
             13         14         15         16         17         18
     1  N   -0.090593  -0.064688  -0.101802  -0.064666   0.000959   0.044411
     2  C    0.113206   0.176314   0.608522   0.156236   0.000282  -0.068807
     3  C    0.117402  -0.014723   1.223705   0.830818  -0.026092  -0.702891
     4  C   -0.486651   0.315171   0.417128  -0.195049  -0.040281  -0.083534
     5  C   -0.278596  -0.490428  -0.866318  -1.314431  -0.020517   0.007921
     6  C   -0.122886  -0.059763  -0.766511  -0.532313   0.004214  -0.069221
     7  C   -0.059948  -0.034470  -0.039100  -0.445774   0.042074  -0.370547
     8  N   -0.007830  -0.005131  -0.060621  -0.004828   0.002130   0.010414
     9  O   -0.004198  -0.014914  -0.004721  -0.003162   0.000005   0.002999
    10  O    0.003843  -0.006976   0.118505  -0.015286  -0.007518  -0.082358
    11  H    0.000024   0.000120   0.000728   0.002526  -0.000006   0.000235
    12  H   -0.013587  -0.025471  -0.037224  -0.024808   0.000004  -0.000396
    13  C   10.142271   0.043181  -1.385284   2.734061   0.000157  -1.669809
    14  C    0.043181   8.857639   0.945401  -0.847789   0.033926   0.480894
    15  C   -1.385284   0.945401   8.254973  -0.623511  -0.126119  -1.080169
    16  C    2.734061  -0.847789  -0.623511  13.132118   0.333149  -3.792040
    17  H    0.000157   0.033926  -0.126119   0.333149   0.534790   0.091457
    18  C   -1.669809   0.480894  -1.080169  -3.792040   0.091457  10.734937
    19  H    0.025544   0.010069   0.003242  -0.080017  -0.005235   0.369298
    20  C   -1.962277  -0.084975   0.510636  -2.890322   0.017312   1.635925
    21  H    0.038275   0.054001   0.023048   0.048513  -0.000168  -0.021245
    22  C   -0.390193  -1.861705  -0.091549  -1.096377   0.004757   1.130228
    23  H    0.004522  -0.059974  -0.020870  -0.015627  -0.000003   0.004434
    24  C   -0.684345  -1.314110  -1.003094   0.995170   0.001904  -0.329587
    25  H   -0.001247   0.014754   0.003227  -0.000774   0.000000   0.003386
    26  S   -0.093545   0.346830   0.189327  -0.039462   0.000309  -0.080506
    27  C   -0.000759  -0.001252  -0.020032  -0.006703  -0.000150  -0.001064
    28  C    0.000145  -0.000758   0.000365  -0.003855  -0.000021  -0.000481
    29  C    0.000035   0.000326  -0.002737  -0.000232   0.000001  -0.000017
    30  H    0.000000   0.000000   0.000000   0.000000   0.000000   0.000000
    31  C   -0.000483  -0.001066  -0.012176   0.003019  -0.000004   0.001258
    32  H    0.000000   0.000000  -0.000006   0.000001   0.000000   0.000000
    33  C   -0.003857  -0.006674  -0.090145  -0.025678  -0.000174   0.003028
    34  H   -0.000021  -0.000150  -0.000839  -0.000175   0.000000  -0.000004
    35  C    0.000372  -0.019995   0.003278  -0.090111  -0.000840  -0.012131
    36  C   -0.000007  -0.000040   0.000047   0.000200   0.000000   0.000034
    37  H    0.000000   0.000000   0.000000   0.000000   0.000000   0.000000
    38  C   -0.000631  -0.002355  -0.001145  -0.009144   0.000121  -0.000538
    39  H    0.000000   0.000010   0.000056   0.000063   0.000000  -0.000001
    40  S    0.000012   0.000156   0.000904  -0.000154   0.000005  -0.000130
             19         20         21         22         23         24
     1  N    0.000026   0.025203  -0.000027   0.122504   0.000203  -0.041804
     2  C    0.000071  -0.035308   0.000004   0.202679   0.004141   0.035000
     3  C   -0.003298  -0.200727  -0.000713  -0.147858  -0.000801   0.106432
     4  C   -0.005251   0.085256   0.002180  -0.486077   0.006091  -0.151437
     5  C   -0.001108  -0.077625  -0.000045  -0.160762   0.008170  -0.049048
     6  C   -0.000155  -0.024750   0.000020  -0.104612   0.002229  -0.007466
     7  C   -0.000603  -0.103027  -0.000088  -0.064189   0.001842   0.004248
     8  N    0.000001   0.003628   0.000000  -0.002167   0.000013  -0.000930
     9  O    0.000000   0.000234   0.000000   0.006570   0.000145  -0.001144
    10  O    0.000246  -0.007266   0.000005  -0.000320   0.000000   0.000557
    11  H    0.000000   0.000034   0.000000  -0.000016   0.000000   0.000000
    12  H    0.000000  -0.000559   0.000000   0.034618   0.002654  -0.001989
    13  C    0.025544  -1.962277   0.038275  -0.390193   0.004522  -0.684345
    14  C    0.010069  -0.084975   0.054001  -1.861705  -0.059974  -1.314110
    15  C    0.003242   0.510636   0.023048  -0.091549  -0.020870  -1.003094
    16  C   -0.080017  -2.890322   0.048513  -1.096377  -0.015627   0.995170
    17  H   -0.005235   0.017312  -0.000168   0.004757  -0.000003   0.001904
    18  C    0.369298   1.635925  -0.021245   1.130228   0.004434  -0.329587
    19  H    0.593879  -0.006954  -0.005123   0.002672   0.000000  -0.006852
    20  C   -0.006954   9.121248   0.245972   0.084113   0.000494   0.051982
    21  H   -0.005123   0.245972   0.609896   0.001004   0.000002  -0.099726
    22  C    0.002672   0.084113   0.001004   9.832783   0.401632  -1.388640
    23  H    0.000000   0.000494   0.000002   0.401632   0.509368   0.016384
    24  C   -0.006852   0.051982  -0.099726  -1.388640   0.016384   9.474975
    25  H   -0.000003  -0.006735   0.002214   0.024192  -0.000052   0.323532
    26  S    0.000166  -0.029059   0.002075  -0.092234  -0.033919  -0.174303
    27  C    0.000000   0.000325   0.000000  -0.002361   0.000010  -0.000040
    28  C    0.000000   0.000035   0.000000  -0.000632  -0.000001  -0.000007
    29  C    0.000000  -0.000010   0.000000  -0.000710   0.000000   0.000009
    30  H    0.000000   0.000000   0.000000   0.000000   0.000000   0.000000
    31  C    0.000000  -0.000016   0.000000  -0.000542  -0.000001   0.000034
    32  H    0.000000   0.000000   0.000000   0.000000   0.000000   0.000000
    33  C    0.000001  -0.000230   0.000000  -0.009170   0.000063   0.000200
    34  H    0.000000   0.000001   0.000000   0.000121   0.000000   0.000000
    35  C   -0.000006  -0.002735   0.000000  -0.001161   0.000055   0.000047
    36  C    0.000000   0.000009   0.000000  -0.000016   0.000000  -0.000001
    37  H    0.000000   0.000000   0.000000   0.000000   0.000000   0.000000
    38  C    0.000000  -0.000708   0.000000   0.003795   0.000002  -0.000016
    39  H    0.000000   0.000000   0.000000   0.000002   0.000000   0.000000
    40  S    0.000000  -0.000022   0.000000   0.000097   0.000000   0.000002
             25         26         27         28         29         30
     1  N   -0.000056   0.021243  -0.005124  -0.007840   0.003618   0.000000
     2  C    0.000005  -0.005267  -0.034661  -0.060057  -0.103198  -0.000088
     3  C   -0.000562  -0.009521  -0.060227  -0.123032  -0.024816   0.000020
     4  C    0.000014   0.039254  -0.491750  -0.279100  -0.077781  -0.000044
     5  C   -0.000080   0.021597   0.314986  -0.486838   0.084831   0.002182
     6  C   -0.000001   0.015698  -0.014298   0.117710  -0.200988  -0.000705
     7  C   -0.000005   0.015933   0.176867   0.113493  -0.035237   0.000004
     8  N    0.000000   0.000234  -0.064619  -0.090631   0.025206  -0.000027
     9  O    0.000000   0.000473  -0.007012   0.003861  -0.007270   0.000005
    10  O    0.000000  -0.000216  -0.014932  -0.004202   0.000234   0.000000
    11  H    0.000000  -0.000001  -0.025457  -0.013564  -0.000558   0.000000
    12  H    0.000000   0.001023   0.000120   0.000024   0.000034   0.000000
    13  C   -0.001247  -0.093545  -0.000759   0.000145   0.000035   0.000000
    14  C    0.014754   0.346830  -0.001252  -0.000758   0.000326   0.000000
    15  C    0.003227   0.189327  -0.020032   0.000365  -0.002737   0.000000
    16  C   -0.000774  -0.039462  -0.006703  -0.003855  -0.000232   0.000000
    17  H    0.000000   0.000309  -0.000150  -0.000021   0.000001   0.000000
    18  C    0.003386  -0.080506  -0.001064  -0.000481  -0.000017   0.000000
    19  H   -0.000003   0.000166   0.000000   0.000000   0.000000   0.000000
    20  C   -0.006735  -0.029059   0.000325   0.000035  -0.000010   0.000000
    21  H    0.002214   0.002075   0.000000   0.000000   0.000000   0.000000
    22  C    0.024192  -0.092234  -0.002361  -0.000632  -0.000710   0.000000
    23  H   -0.000052  -0.033919   0.000010  -0.000001   0.000000   0.000000
    24  C    0.323532  -0.174303  -0.000040  -0.000007   0.000009   0.000000
    25  H    0.536475  -0.041488   0.000000   0.000000   0.000000   0.000000
    26  S   -0.041488  15.946010   0.000156   0.000011  -0.000022   0.000000
    27  C    0.000000   0.000156   8.858460   0.042357  -0.084966   0.054004
    28  C    0.000000   0.000011   0.042357  10.142881  -1.962058   0.038295
    29  C    0.000000  -0.000022  -0.084966  -1.962058   9.121109   0.245921
    30  H    0.000000   0.000000   0.054004   0.038295   0.245921   0.609899
    31  C    0.000000  -0.000130   0.481678  -1.669727   1.637055  -0.021306
    32  H    0.000000   0.000000   0.010082   0.025536  -0.006964  -0.005123
    33  C    0.000000  -0.000155  -0.847781   2.734006  -2.890189   0.048565
    34  H    0.000000   0.000006   0.033971   0.000150   0.017316  -0.000168
    35  C    0.000000   0.000900   0.945525  -1.385572   0.509477   0.023067
    36  C    0.000000   0.000002  -1.313756  -0.684075   0.052362  -0.099713
    37  H    0.000000   0.000000   0.014758  -0.001226  -0.006729   0.002214
    38  C    0.000000   0.000097  -1.861928  -0.389808   0.084562   0.000995
    39  H    0.000000   0.000000  -0.059940   0.004528   0.000486   0.000002
    40  S    0.000000   0.000005   0.347069  -0.093748  -0.029251   0.002076
             31         32         33         34         35         36
     1  N    0.010412   0.000001  -0.004845   0.002134  -0.060611  -0.000930
     2  C   -0.370815  -0.000604  -0.446182   0.042129  -0.039638   0.004263
     3  C   -0.069438  -0.000155  -0.532673   0.004219  -0.767047  -0.007472
     4  C    0.007124  -0.001110  -1.314086  -0.020506  -0.865844  -0.049108
     5  C   -0.084299  -0.005255  -0.193987  -0.040328   0.418221  -0.151385
     6  C   -0.704208  -0.003307   0.830886  -0.026181   1.224252   0.106636
     7  C   -0.068623   0.000071   0.156336   0.000274   0.608290   0.035005
     8  N    0.044436   0.000026  -0.064494   0.000957  -0.101896  -0.041786
     9  O   -0.082485   0.000247  -0.015351  -0.007528   0.118591   0.000558
    10  O    0.002999   0.000000  -0.003167   0.000005  -0.004724  -0.001144
    11  H   -0.000397   0.000000  -0.024767   0.000004  -0.037191  -0.001978
    12  H    0.000235   0.000000   0.002527  -0.000006   0.000729   0.000000
    13  C   -0.000483   0.000000  -0.003857  -0.000021   0.000372  -0.000007
    14  C   -0.001066   0.000000  -0.006674  -0.000150  -0.019995  -0.000040
    15  C   -0.012176  -0.000006  -0.090145  -0.000839   0.003278   0.000047
    16  C    0.003019   0.000001  -0.025678  -0.000175  -0.090111   0.000200
    17  H   -0.000004   0.000000  -0.000174   0.000000  -0.000840   0.000000
[...]
 00090796,0.00127199,0.00017667,0.00044395,-0.00121718,-0.00027992,-0.0
 0002871,-0.00001849,0.00004568,-0.00101824,-0.00000392,-0.00008229,-0.
 00001838,-0.00003102,-0.00001416,0.00048599,0.00028307,0.00007527,0.00
 003731,-0.00000082,0.00001992,-0.00017682,-0.00023142,-0.00011835,-0.0
 0000018,-0.00001076,0.00001222,-0.00000278,-0.00018048,-0.00008680,0.0
 0000581,-0.00000775,-0.00000210,0.00031032,0.00051257,0.00021406,-0.01
 460133,0.02748337,-0.00606282,-0.10264761,-0.16393564,0.04911841,-0.03
 350726,-0.03830368,0.01850086,-0.00056095,0.00148249,-0.00126786,0.016
 09223,-0.00055445,0.00042189,-0.00066781,-0.00050713,0.00024616,-0.008
 06374,0.00354639,-0.00129169,0.00008222,0.00026476,0.00009438,-0.00244
 111,-0.00470841,0.00196619,0.00141311,0.41104743,0.00021903,-0.0003412
 5,-0.00001703,-0.00050384,0.00003629,-0.00003898,-0.00080247,0.0002212
 6,-0.00001243,0.00054084,0.00059909,0.00010144,0.00066450,0.00035219,-
 0.00017912,-0.00151135,0.00018097,0.00023484,-0.00017430,-0.00080795,-
 0.00005589,0.00005447,-0.00018469,0.00010652,0.00016707,-0.00007677,0.
 00003970,-0.00008765,0.00069274,0.00003055,0.00007808,-0.00004533,-0.0
 0001354,-0.00001807,0.00000887,-0.00001650,-0.00005328,0.00005281,-0.0
 0000841,-0.00001101,-0.00012564,-0.00001510,0.00045670,-0.00061106,-0.
 00008044,-0.00022507,0.00059697,0.00013370,0.00000552,0.00000661,-0.00
 002156,0.00050304,-0.00001086,0.00004313,0.00000760,0.00001934,0.00000
 557,-0.00025003,-0.00013538,-0.00003175,-0.00001979,0.00000184,-0.0000
 1133,0.00008278,0.00010583,0.00006031,0.00000120,0.00000594,-0.0000094
 7,0.00000025,0.00008389,0.00005076,-0.00000245,0.00000496,-0.00000186,
 -0.00014224,-0.00024655,-0.00010619,0.01002858,-0.00944263,0.00918269,
 0.05164485,0.05086896,-0.07707489,0.01225419,0.01639523,0.00025387,0.0
 0013111,-0.00134056,-0.00151893,-0.00589711,0.00083575,0.00313622,0.00
 023192,0.00025056,0.00026353,0.00326197,-0.00156627,-0.00035451,-0.000
 05847,-0.00010294,0.00004253,0.00142007,0.00197390,0.00036012,-0.04461
 226,-0.13385621,0.12471206,-0.00002692,-0.00001209,-0.00000688,0.00002
 919,-0.00000073,0.00000297,-0.00000216,0.00001825,-0.00000170,-0.00006
 096,-0.00004570,-0.00000939,-0.00004745,0.00011265,0.00003077,-0.00020
 558,-0.00027729,0.00012036,0.00004437,-0.00000625,-0.00000343,-0.00002
 439,-0.00009582,-0.00000226,-0.00002890,0.00000293,-0.00000163,-0.0000
 1621,0.00000587,0.00000600,0.00002666,-0.00001855,-0.00002487,-0.00000
 158,0.00000198,0.00000053,-0.00000580,0.00000896,0.00000326,0.00000454
 ,-0.00000150,0.00000008,0.00000549,-0.00002478,-0.00000471,-0.00001268
 ,0.00002669,0.00000552,0.00000124,-0.00000027,-0.00000148,0.00003004,-
 0.00000075,0.00000328,0.00000055,0.00000177,0.00000047,-0.00001436,-0.
 00001118,-0.00000452,-0.00000194,0.00000020,-0.00000066,0.00000696,0.0
 0000343,0.00000237,0.00000088,0.00000103,0.00000070,-0.00000587,0.0000
 0446,0.00000275,-0.00000047,0.00000031,-0.00000001,-0.00000916,-0.0000
 1735,-0.00000789,-0.00191810,-0.00259152,0.00146271,-0.01147977,0.0090
 1497,-0.00270322,0.00097077,0.00139399,-0.00071976,0.00015762,-0.00067
 826,0.00023809,-0.00041623,-0.00023857,0.00006676,-0.00004263,-0.00004
 107,0.00002587,0.00018469,-0.00009847,0.00000456,0.00003277,-0.0000431
 3,0.00001409,-0.00041217,0.00106739,-0.00028520,-0.34260430,0.06584394
 ,-0.00270314,0.35625791,-0.00000832,0.00004318,0.00000680,0.00005790,0
 .00001231,0.00001707,0.00006968,-0.00000186,-0.00001266,-0.00009452,-0
 .00001984,0.00000135,-0.00005543,0.00005953,0.00004215,-0.00009050,-0.
 00035185,0.00014487,-0.00013710,0.00005908,-0.00000929,0.00016492,0.00
 003610,-0.00019344,-0.00001045,-0.00000883,-0.00001132,0.00004304,-0.0
 0005212,-0.00001517,-0.00000521,-0.00001472,0.00013998,-0.00000141,-0.
 00000041,-0.00000071,0.00000338,-0.00000211,0.00000151,0.00000339,0.00
 001469,0.00000383,-0.00005086,0.00005669,0.00000527,0.00002035,-0.0000
 5535,-0.00001477,-0.00000619,-0.00000229,0.00000557,-0.00004416,0.0000
 0235,-0.00000481,-0.00000130,-0.00000149,0.00000017,0.00002207,0.00001
 132,0.00000236,0.00000219,-0.00000022,0.00000135,-0.00000713,-0.000011
 01,-0.00000624,-0.00000061,-0.00000094,0.00000121,-0.00000027,-0.00000
 729,-0.00000507,0.00000029,-0.00000089,0.00000053,0.00001189,0.0000208
 8,0.00000895,-0.00265246,-0.00138388,0.00246440,-0.01567364,0.01030150
 ,-0.00248966,0.00001808,0.00064565,-0.00154109,0.00048749,-0.00027205,
 0.00020264,0.00041460,-0.00009473,-0.00013250,-0.00000672,0.00001348,0
 .00009293,-0.00010402,0.00011191,-0.00016493,0.00001970,-0.00001539,0.
 00003329,-0.00076226,0.00088095,-0.00000485,0.06686865,-0.06128569,0.0
 1284942,-0.07120619,0.05990126,0.00000679,-0.00000807,-0.00000260,-0.0
 0002733,0.00003194,0.00001860,0.00002207,-0.00000190,-0.00002652,-0.00
 006344,-0.00002691,-0.00001614,0.00001144,-0.00005410,0.00006658,0.000
 03821,0.00038330,0.00020715,0.00002318,-0.00001270,0.00002130,-0.00012
 585,-0.00004346,0.00001378,0.00001861,-0.00002979,-0.00001443,0.000002
 79,-0.00006143,-0.00001010,0.00007239,-0.00006021,-0.00009703,0.000000
 08,0.00000004,0.00000336,-0.00000160,0.00000070,0.00000503,0.00000519,
 0.00000381,-0.00000017,-0.00000921,0.00000040,-0.00000049,0.00000142,-
 0.00000135,-0.00000379,0.00000078,0.00000084,0.00000061,0.00000162,0.0
 0000162,0.00000044,0.00000059,-0.00000105,0.00000057,0.00000040,-0.000
 00225,-0.00000306,0.00000005,-0.00000015,0.00000043,0.00000227,0.00000
 004,-0.00000170,-0.00000047,-0.00000011,0.00000110,-0.00000188,0.00000
 152,-0.00000184,0.,-0.00000051,0.00000109,-0.00000376,-0.00000461,-0.0
 0000178,0.00107277,0.00308473,0.00321617,0.00818090,-0.00401200,0.0019
 0337,-0.00025602,-0.00136795,-0.00285940,-0.00019541,0.00029650,0.0002
 9165,-0.00027685,-0.00004412,-0.00035242,-0.00000016,0.00006424,0.0002
 0432,0.00000158,-0.00025720,-0.00021769,-0.00000308,0.00003415,0.00007
 006,0.00042266,-0.00014037,0.00043476,-0.00317457,0.01237230,-0.020153
 89,0.00376012,-0.01274628,0.01937879,-0.00064652,0.00076137,0.00007951
 ,0.00127945,0.00003082,0.00010304,0.00184340,-0.00055137,0.00001034,-0
 .00140395,-0.00119279,-0.00030522,-0.00162999,-0.00093903,0.00019095,0
 .00422256,-0.00019227,0.00061973,0.00048115,0.00077408,0.00042062,-0.0
 0317688,0.00043708,0.00052600,-0.00040298,0.00019767,-0.00009852,0.000
 22692,-0.00116910,-0.00008930,-0.00117670,-0.00021388,0.00073039,0.000
 03053,-0.00002263,0.00002555,0.00011125,-0.00009013,-0.00003364,0.0000
 4475,0.00024102,0.00007544,-0.00106383,0.00126060,0.00016625,0.0004911
 0,-0.00125257,-0.00028339,-0.00001420,-0.00001333,0.00004611,-0.001033
 21,0.00004588,-0.00007059,-0.00001414,-0.00003984,-0.00001513,0.000530
 65,0.00024598,0.00007286,0.00004070,-0.00000008,0.00002132,-0.00017448
 ,-0.00022973,-0.00012085,-0.00000280,-0.00000948,0.00001024,0.00000205
 ,-0.00017617,-0.00008377,0.00000661,-0.00000708,-0.00000194,0.00028704
 ,0.00051287,0.00021934,-0.10231610,-0.01262794,0.00670936,0.00925928,0
 .01703137,-0.00629501,-0.00610234,0.00135481,-0.00008476,0.00003826,0.
 00155064,-0.00056304,-0.00014247,-0.00202033,0.00070078,0.00007418,0.0
 0007836,0.00004054,-0.00513736,-0.00028485,0.00039869,0.00043504,-0.00
 120592,0.00014768,-0.00227682,-0.02759683,0.01177303,-0.04632453,0.013
 68690,-0.00162990,0.00049183,0.00071649,-0.00061019,0.52528812,-0.0004
 6130,0.00104475,0.00011935,0.00173034,0.00147548,-0.00007548,0.0021383
 3,-0.00058010,-0.00021122,-0.00146931,-0.00230874,0.00014663,-0.004757
 52,-0.00211047,0.00024041,0.01159308,-0.00246477,-0.00091181,0.0015225
 8,0.00203409,0.00038223,-0.00233522,0.00265562,0.00157294,-0.00002764,
 -0.00067827,0.00000083,0.00023623,-0.00156409,0.00002541,-0.00149459,-
 0.00053040,-0.00145267,0.00007259,-0.00001042,0.00003008,0.00013096,-0
 .00003249,-0.00000258,-0.00001422,0.00040477,0.00012505,-0.00113658,0.
 00182885,0.00024634,0.00049919,-0.00162528,-0.00035919,-0.00004648,-0.
 00003888,0.00006490,-0.00131045,-0.00006876,-0.00016263,-0.00003165,-0
 .00001850,-0.00001087,0.00056616,0.00039127,0.00011137,0.00003502,-0.0
 0000198,0.00002902,-0.00023151,-0.00033816,-0.00018603,0.00001091,-0.0
 0001377,0.00003333,-0.00003293,-0.00022901,-0.00010926,0.00000427,-0.0
 0001130,-0.00000030,0.00043929,0.00064809,0.00027329,-0.02230347,-0.29
 599024,0.10232594,0.04930863,-0.02513155,0.01141825,0.00017249,-0.0024
 4524,0.00117734,-0.00021907,-0.00035615,0.00018980,0.00680758,-0.00270
 451,0.00007748,0.00007124,0.00006064,0.00008387,-0.00653566,0.00914238
 ,-0.00232059,0.00006721,0.00006495,0.00022264,-0.02675522,-0.02354643,
 0.01319261,0.01573716,-0.02499665,0.01375952,-0.00076279,-0.00607453,0
 .00160296,-0.12410644,0.58915017,0.00059673,-0.00056055,-0.00003798,-0
 .00116980,-0.00112426,-0.00009970,-0.00139739,0.00050922,0.00006290,0.
 00113314,0.00143938,0.00012164,0.00282456,0.00162166,-0.00043711,-0.00
 460160,-0.00076338,-0.00000492,-0.00088451,-0.00057566,-0.00040630,0.0
 0191851,-0.00108292,-0.00083115,0.00003282,0.00047559,0.00008473,0.000
 00188,0.00106586,0.00012074,0.00001319,0.00023632,0.00071910,-0.000026
 31,0.00001101,-0.00003522,-0.00006646,0.00001884,-0.00000353,-0.000024
 55,-0.00022039,-0.00005907,0.00074115,-0.00097578,-0.00011780,-0.00031
 959,0.00090044,0.00021628,-0.00000779,0.00001549,-0.00003067,0.0007153
 0,0.00000837,0.00007104,0.00001093,0.00001987,0.00000546,-0.00033413,-
 0.00018054,-0.00004788,-0.00001912,-0.00000018,-0.00001587,0.00011905,
 0.00018541,0.00009678,-0.00000728,0.00000340,-0.00002387,0.00003108,0.
 00012065,0.00006216,-0.00000246,0.00000628,-0.00000170,-0.00021125,-0.
 00033712,-0.00013809,0.01223574,0.10714455,-0.09997993,-0.01816206,0.0
 1400109,0.00247150,-0.00017507,0.00070090,0.00082540,0.00011298,0.0001
 6936,0.00024495,-0.00160067,0.00091404,-0.00071928,-0.00001816,-0.0000
 7795,-0.00015478,0.00228331,-0.00156374,0.00340988,-0.00010748,0.00015
 481,0.00014353,0.00910493,0.01080340,-0.00084049,-0.00287450,0.0114775
 5,0.00607197,0.00017078,0.00263028,-0.00109657,0.04337166,-0.22785301,
 0.17750862,0.00009637,0.00012232,0.00002921,-0.00009047,-0.00019025,0.
 00001294,-0.00028427,-0.00007876,-0.00002387,0.00015995,0.00031717,-0.
 00005720,0.00015135,0.00030769,-0.00009645,0.00040939,-0.00153495,0.00
 029543,-0.00131619,-0.00034568,0.00036283,-0.00218203,0.00142036,0.000
 90370,0.00000889,0.00009680,-0.00000606,0.00023992,-0.00002663,-0.0001
 0668,-0.00198224,-0.00070890,0.00274229,-0.00000837,-0.00001088,-0.000
 01130,0.00000573,-0.00001949,-0.00000632,-0.00001876,-0.00001566,-0.00
 000460,0.00007221,-0.00005438,-0.00000121,-0.00000264,0.00003316,-0.00
 000302,-0.00002396,-0.00000073,0.00000676,0.00000302,0.00001045,0.0000
 0350,-0.00000035,-0.00000386,-0.00000055,0.00000332,0.00000782,0.00000
 299,0.00000466,-0.00000026,0.00000025,-0.00000297,0.00001086,0.0000069
 0,-0.00000338,-0.00000317,-0.00000298,0.00001697,-0.00000064,-0.000000
 57,0.00000081,-0.00000057,0.00000050,0.00000133,0.00000919,0.00000342,
 0.00923818,-0.00413797,0.00175563,0.00045002,-0.00159089,0.00043489,0.
 00026209,-0.00018993,0.00000828,0.00007591,-0.00015209,0.00007720,0.00
 039723,0.00004373,-0.00007606,0.00000189,0.00000017,0.00000783,-0.0003
 4779,0.00043857,-0.00017234,0.00000511,0.00002904,0.00003904,-0.000412
 21,0.00027019,-0.00011995,-0.00432815,-0.00241043,0.00111572,0.0002215
 0,0.00119163,-0.00033386,-0.20108893,0.14399306,-0.06681214,0.21409892
 ,0.00008923,0.00003224,0.00002599,-0.00002477,-0.00020870,0.00003785,0
 .00003302,0.00005302,0.00004566,0.00003337,0.00015524,-0.00003325,0.00
 030611,0.00019272,0.00002486,-0.00054522,-0.00107521,0.00029723,-0.000
 77095,0.00071650,-0.00007159,0.00112522,0.00021384,-0.00123077,-0.0000
 3127,0.00009335,-0.00003377,0.00006568,-0.00047651,-0.00000354,0.00065
 600,0.00128559,0.00042406,-0.00000231,-0.00000628,-0.00000842,0.000008
 30,-0.00000819,-0.00000125,0.00000736,0.00001155,0.00000398,-0.0000570
 3,0.00006300,0.00000501,0.00002699,-0.00006596,-0.00001195,-0.00000373
 ,0.00000242,0.00000211,-0.00006108,0.00000728,-0.00000170,0.00000129,-
 0.00000638,-0.00000258,0.00003503,0.00001419,0.00000236,0.00000448,-0.
 00000070,0.00000123,-0.00000960,-0.00001375,-0.00000337,-0.00000316,-0
 .00000275,-0.00000056,0.00000626,-0.00001019,-0.00000586,0.00000105,-0
 .00000094,0.00000012,0.00001150,0.00002728,0.00001037,0.01987559,-0.00
 742627,0.00360381,-0.00176950,-0.00374296,0.00385463,0.00150277,0.0001
 0090,0.00007464,0.00000359,-0.00044553,0.00024211,0.00006938,0.0000350
 5,-0.00017167,-0.00002615,-0.00001361,0.00001718,-0.00008170,-0.000179
 50,-0.00006790,0.00001917,-0.00001319,0.00013068,0.00069498,0.00074907
 ,-0.00187661,-0.00376803,-0.00105309,0.00040315,0.00008389,0.00143982,
 0.00094189,0.14000984,-0.17608318,0.07437475,-0.15012739,0.17961149,-0
 .00014864,-0.00018658,-0.00000214,0.00006952,0.00020537,-0.00000501,0.
 00052281,0.00002425,0.00002585,-0.00068780,-0.00041707,-0.00011200,-0.
 00021139,-0.00050201,0.00017904,-0.00025495,0.00167080,-0.00043862,0.0
 0146982,-0.00048363,0.00021008,-0.00080948,0.00001559,0.00016089,-0.00
 000100,-0.00011690,-0.00002162,-0.00036169,0.00009891,-0.00007048,0.00
 335966,0.00024454,-0.00229781,0.00001257,-0.00000643,0.00002661,0.0000
 0161,0.00001494,0.00000677,0.00002312,0.00004343,0.00000996,-0.0001651
 5,0.00016044,0.00000495,0.00004256,-0.00013540,-0.00002060,0.00004116,
 0.00000136,0.00000114,-0.00009160,-0.00000916,-0.00001823,0.00000145,-
 0.00000184,0.00000203,0.00003527,0.00001427,-0.00000124,-0.00000245,-0
 .00000099,0.00000356,-0.00001051,-0.00003313,-0.00002432,0.00000297,0.
 00000057,0.00000956,-0.00001809,-0.00001219,-0.00000884,-0.00000084,-0
 .00000117,0.00000118,0.00001698,0.00002524,0.00001143,-0.00860393,0.00
 100402,0.00043194,0.00080660,0.00281140,0.00359237,-0.00044916,0.00033
 156,0.00048689,0.00002106,0.00026519,0.00013713,-0.00051787,-0.0001485
 6,-0.00027533,0.00000372,0.00000784,0.00000293,0.00032425,-0.00067797,
 0.00010775,-0.00000208,0.00003591,0.00020183,0.00048933,-0.00090438,-0
 .00281932,0.00220544,0.00080399,-0.00080640,0.00020847,0.00034658,0.00
 267323,-0.06804684,0.07716141,-0.05438926,0.06596918,-0.07661609,0.054
 55840,0.00076605,-0.00091278,-0.00016148,-0.00184237,-0.00092038,-0.00
 012687,-0.00379472,0.00046626,0.00003849,0.00300505,0.00214316,0.00011
 174,0.00246941,0.00212240,-0.00036450,-0.00416417,-0.00109976,0.000443
 74,-0.00109682,-0.00277479,0.00006388,0.00029243,0.00035595,0.00010679
 ,0.00015707,0.00032103,0.00004958,-0.00017893,0.00254199,0.00001272,-0
 .00148426,-0.00023343,0.00043489,-0.00005545,0.00003139,-0.00002551,-0
 .00017487,0.00007023,0.00002750,-0.00011705,-0.00048634,-0.00015338,0.
 00195777,-0.00234175,-0.00030033,-0.00081307,0.00222508,0.00048553,0.0
 0000671,0.00002351,-0.00006669,0.00175633,-0.00002677,0.00014061,0.000
 02392,0.00005496,0.00002532,-0.00086735,-0.00041227,-0.00011822,-0.000
 05608,-0.00000018,-0.00003484,0.00029103,0.00043961,0.00021576,0.00000
 067,0.00001145,-0.00001652,0.00003811,0.00030806,0.00014336,-0.0000095
 7,0.00001207,0.00000355,-0.00049917,-0.00084356,-0.00035911,-0.0294871
 2,-0.04249524,0.02028896,-0.00998464,-0.00202285,0.00173760,-0.0017108
 9,-0.00087479,0.00095626,0.00006320,0.00001044,0.00000834,-0.00065397,
 0.00238898,-0.00066815,-0.00006018,-0.00023239,-0.00007010,-0.00138579
 ,0.00011574,0.00042614,0.00021199,-0.00013952,0.00015130,0.00945269,-0
 .00025284,-0.00140044,-0.05863827,0.06508164,-0.02416702,-0.00112936,0
 .02080300,-0.00856222,-0.17105658,-0.04110430,0.02340460,-0.01383204,-
 0.00738820,0.00475597,0.28260024,0.00151030,-0.00160917,-0.00023684,-0
 .00270715,-0.00014400,-0.00014892,-0.00531981,0.00126839,0.00002403,0.
 00377001,0.00369463,0.00041196,0.00387543,0.00205318,-0.00058295,-0.00
 602218,-0.00024729,-0.00051937,-0.00258286,-0.00400833,-0.00012199,0.0
 0188386,-0.00010455,-0.00049520,0.00063859,-0.00046878,0.00011854,-0.0
 0014716,0.00372069,-0.00001440,-0.00114639,0.00029117,0.00110984,-0.00
 007886,0.00005952,-0.00005388,-0.00032790,0.00032839,0.00007515,-0.000
 07673,-0.00069673,-0.00020902,0.00296311,-0.00357522,-0.00044292,-0.00
 140830,0.00358779,0.00079141,-0.00001530,0.00001792,-0.00010123,0.0029
 8739,-0.00010250,0.00020413,0.00003981,0.00011630,0.00004650,-0.001517
 74,-0.00075078,-0.00020398,-0.00011380,0.00000114,-0.00006080,0.000519
 47,0.00064898,0.00034166,0.00000861,0.00002710,-0.00002510,-0.00002336
 ,0.00050734,0.00025012,-0.00001812,0.00002125,0.00000459,-0.00084396,-
 0.00150905,-0.00064296,-0.01489252,-0.03753867,0.01804299,-0.02873736,
 -0.05142737,0.02499954,-0.00412771,0.00557656,0.00038504,0.00041905,-0
 .00032139,-0.00002494,-0.00067289,-0.00150267,0.00085533,-0.00032459,-
 0.00031033,-0.00034866,0.00231928,0.00165968,0.00041734,-0.00009201,-0
 .00026639,-0.00030058,0.01020767,-0.00271545,0.00236754,0.02813208,-0.
 14806168,0.04858798,-0.00142045,-0.00395324,0.00005553,-0.00499397,-0.
 03894718,0.00630694,0.01330127,0.00602838,-0.00503411,0.00503516,0.268
 65236,-0.00068868,0.00077896,0.00005252,0.00125480,0.00023150,0.000084
 83,0.00215393,-0.00061038,0.00000862,-0.00139650,-0.00165739,-0.000140
 85,-0.00201102,-0.00097115,0.00012295,0.00284613,-0.00009081,-0.000129
 16,0.00078306,0.00206173,0.00002481,0.00010858,-0.00050719,0.00022952,
 -0.00027454,0.00011827,-0.00002906,0.00011745,-0.00176591,-0.00002576,
 0.00036740,0.00019989,-0.00025114,0.00002919,-0.00001896,0.00002487,0.
 00013791,-0.00014172,-0.00002784,0.00003480,0.00029747,0.00007529,-0.0
 0124329,0.00150518,0.00020220,0.00059887,-0.00151263,-0.00034232,-0.00
 000080,-0.00000818,0.00004362,-0.00126112,0.00004873,-0.00008219,-0.00
 001648,-0.00005128,-0.00001915,0.00064546,0.00031463,0.00008538,0.0000
 4947,0.00000013,0.00002551,-0.00022038,-0.00027421,-0.00013971,-0.0000
 0298,-0.00001024,0.00001097,0.00000764,-0.00021491,-0.00010860,0.00000
 803,-0.00000905,-0.00000175,0.00035608,0.00063936,0.00027149,0.0090835
 6,0.02066573,-0.00194673,0.01154908,0.02253881,-0.00356432,0.00231009,
 -0.00006486,0.00537328,-0.00021174,-0.00004037,-0.00056514,0.00016654,
 0.00091236,0.00085785,0.00013876,-0.00012362,-0.00078690,-0.00045077,-
 0.00032823,0.00034375,-0.00000547,-0.00004048,-0.00086959,-0.00506316,
 0.00357675,0.00533751,-0.00874224,0.04737026,-0.04430126,0.00035025,-0
 .00164972,-0.00365278,0.01187265,0.00904264,-0.03276550,-0.00594332,-0
 .00438278,-0.00153431,-0.01743721,-0.09582832,0.07810907\\0.00000034,-
 0.00000099,-0.00000058,0.00000124,-0.00000072,-0.00000006,-0.00000028,
 -0.00000108,-0.00000040,-0.00000083,-0.00000050,0.00000083,0.00000081,
 0.00000049,0.00000080,0.00000032,0.00000110,-0.00000059,-0.00000122,0.
 00000075,-0.00000051,-0.00000043,0.00000099,-0.00000026,0.00000139,0.0
 0000024,-0.00000005,-0.00000137,-0.00000025,0.00000009,-0.00000109,0.0
 0000119,0.00000019,0.00000104,-0.00000122,0.00000018,-0.00000021,-0.00
 000282,0.00000049,-0.00000024,-0.00000233,-0.00000018,0.00000027,-0.00
 000152,0.00000011,-0.00000101,-0.00000123,0.00000024,-0.00000137,-0.00
 000130,-0.00000005,-0.00000096,-0.00000264,0.00000008,-0.00000186,-0.0
 0000228,-0.00000011,-0.00000140,-0.00000288,-0.00000044,-0.00000135,-0
 .00000361,0.00000023,0.00000144,-0.00000239,0.00000007,0.00000107,-0.0
 0000202,0.00000010,-0.00000012,-0.00000380,-0.00000044,-0.00000003,-0.
 00000398,0.00000012,0.00000065,-0.00000310,-0.00000003,0.00000024,0.00
 000232,-0.00000018,0.00000023,0.00000281,0.00000045,0.00000140,0.00000
 288,-0.00000045,0.00000135,0.00000361,0.00000024,0.00000095,0.00000265
 ,0.00000008,0.00000186,0.00000228,-0.00000010,0.00000102,0.00000121,0.
 00000022,0.00000134,0.00000131,-0.00000002,-0.00000030,0.00000153,0.00
 000013,0.00000011,0.00000382,-0.00000038,0.00000003,0.00000399,0.00000
 013,-0.00000141,0.00000243,0.00000011,-0.00000099,0.00000201,0.0000000
 5,-0.00000063,0.00000308,-0.00000012\\\@


 SACRED COWS MAKE GREAT HAMBURGERS -- ROBERT REISNER
 Job cpu time:  0 days 17 hours  9 minutes 50.6 seconds.
 File lengths (MBytes):  RWF=   2750 Int=      0 D2E=      0 Chk=     32 Scr=      1
 Normal termination of Gaussian 09 at Thu Sep 14 18:17:37 2023.
