 Entering Link 1 = C:\G09W\l1.exe PID=     16292.
  
 Copyright (c) 1988,1990,1992,1993,1995,1998,2003,2009,2010,
            Gaussian, Inc.  All Rights Reserved.
  
 This is part of the Gaussian(R) 09 program.  It is based on
 the Gaussian(R) 03 system (copyright 2003, Gaussian, Inc.),
 the Gaussian(R) 98 system (copyright 1998, Gaussian, Inc.),
 the Gaussian(R) 94 system (copyright 1995, Gaussian, Inc.),
 the Gaussian 92(TM) system (copyright 1992, Gaussian, Inc.),
 the Gaussian 90(TM) system (copyright 1990, Gaussian, Inc.),
 the Gaussian 88(TM) system (copyright 1988, Gaussian, Inc.),
 the Gaussian 86(TM) system (copyright 1986, Carnegie Mellon
 University), and the Gaussian 82(TM) system (copyright 1983,
 Carnegie Mellon University). Gaussian is a federally registered
 trademark of Gaussian, Inc.
  
 This software contains proprietary and confidential information,
 including trade secrets, belonging to Gaussian, Inc.
  
 This software is provided under written license and may be
 used, copied, transmitted, or stored only in accord with that
 written license.
  
 The following legend is applicable only to US Government
 contracts under FAR:
  
                    RESTRICTED RIGHTS LEGEND
  
 Use, reproduction and disclosure by the US Government is
 subject to restrictions as set forth in subparagraphs (a)
 and (c) of the Commercial Computer Software - Restricted
 Rights clause in FAR 52.227-19.
  
 Gaussian, Inc.
 340 Quinnipiac St., Bldg. 40, Wallingford CT 06492
  
  
 ---------------------------------------------------------------
 Warning -- This program may not be used in any manner that
 competes with the business of Gaussian, Inc. or will provide
 assistance to any competitor of Gaussian, Inc.  The licensee
 of this program is prohibited from giving any competitor of
 Gaussian, Inc. access to this program.  By using this program,
 the user acknowledges that Gaussian, Inc. is engaged in the
 business of creating and licensing software in the field of
 computational chemistry and represents and warrants to the
 licensee that it is not a competitor of Gaussian, Inc. and that
 it will not use this program in any manner prohibited above.
 ---------------------------------------------------------------
  

 Cite this work as:
 Gaussian 09, Revision B.01,
 M. J. Frisch, G. W. Trucks, H. B. Schlegel, G. E. Scuseria, 
 M. A. Robb, J. R. Cheeseman, G. Scalmani, V. Barone, B. Mennucci, 
 G. A. Petersson, H. Nakatsuji, M. Caricato, X. Li, H. P. Hratchian, 
 A. F. Izmaylov, J. Bloino, G. Zheng, J. L. Sonnenberg, M. Hada, 
 M. Ehara, K. Toyota, R. Fukuda, J. Hasegawa, M. Ishida, T. Nakajima, 
 Y. Honda, O. Kitao, H. Nakai, T. Vreven, J. A. Montgomery, Jr., 
 J. E. Peralta, F. Ogliaro, M. Bearpark, J. J. Heyd, E. Brothers, 
 K. N. Kudin, V. N. Staroverov, T. Keith, R. Kobayashi, J. Normand, 
 K. Raghavachari, A. Rendell, J. C. Burant, S. S. Iyengar, J. Tomasi, 
 M. Cossi, N. Rega, J. M. Millam, M. Klene, J. E. Knox, J. B. Cross, 
 V. Bakken, C. Adamo, J. Jaramillo, R. Gomperts, R. E. Stratmann, 
 O. Yazyev, A. J. Austin, R. Cammi, C. Pomelli, J. W. Ochterski, 
 R. L. Martin, K. Morokuma, V. G. Zakrzewski, G. A. Voth, 
 P. Salvador, J. J. Dannenberg, S. Dapprich, A. D. Daniels, 
 O. Farkas, J. B. Foresman, J. V. Ortiz, J. Cioslowski, 
 and D. J. Fox, Gaussian, Inc., Wallingford CT, 2010.
 
 ******************************************
 Gaussian 09:  IA32W-G09RevB.01 12-Aug-2010
                31-Jul-2023 
 ******************************************
 %mem=150MW
 %nprocshared=6
 Will use up to    6 processors via shared memory.
 %chk=G:\Meu Drive\POS-DOC-IME\SUBSTITUINTES-DOADORES\DPP-substituido\DPP-SUB-4a\
 DPP-SUB-4A-TD-DFT.chk
 ---------------------------------------------------------
 # td=(nstates=10) cam-b3lyp/6-31+g(d,p) geom=connectivity
 ---------------------------------------------------------
 1/38=1,57=2/1;
 2/12=2,17=6,18=5,40=1/2;
 3/5=1,6=6,7=111,11=2,16=1,25=1,30=1,74=-40/1,2,8,3;
 4//1;
 5/5=2,38=5/2;
 8/6=1,10=2,108=10/1;
 9/41=10,42=1/14;
 6/7=2,8=2,9=2,10=2/1;
 99/5=1,9=1/99;
 -------------------
 Title Card Required
 -------------------
 Symbolic Z-matrix:
 Charge =  0 Multiplicity = 1
 N                     1.56525   1.42888  -0.3034 
 C                     0.1956    1.80239  -0.38796 
 C                     1.75847   0.04881  -0.33595 
 C                     0.49301  -0.52026  -0.39523 
 C                    -0.49296   0.52013  -0.39511 
 C                    -1.75843  -0.04895  -0.33576 
 C                    -0.19551  -1.80252  -0.38825 
 N                    -1.56522  -1.42904  -0.30356 
 O                    -0.18437   2.96736  -0.46719 
 O                     0.18443  -2.96745  -0.46809 
 H                    -2.28994  -2.10671  -0.49219 
 H                     2.29009   2.1067   -0.49103 
 C                     5.5498   -0.55459   0.05217 
 C                     4.26041   0.11278   0.17888 
 C                     3.074    -0.56655  -0.31124 
 C                     3.2143   -1.85858  -0.79862 
 H                     2.33009  -2.3966   -1.12435 
 C                     4.47905  -2.5014   -0.89608 
 H                     4.52001  -3.50753  -1.30122 
 C                     5.631    -1.86566  -0.50721 
 H                     6.59833  -2.35058  -0.59945 
 C                     4.38948   1.33854   0.82113 
 H                     3.62135   2.02524   1.1424 
 C                     6.59173   0.20192   0.57188 
 H                     7.64215  -0.05149   0.6071 
 S                     6.0256    1.67731   1.22958 
 C                    -4.26045  -0.11283   0.17907 
 C                    -5.54976   0.55471   0.0524 
 C                    -5.63079   1.86589  -0.50672 
 H                    -6.59807   2.35094  -0.59889 
 C                    -4.47875   2.50163  -0.89529 
 H                    -4.51958   3.50787  -1.30017 
 C                    -3.21408   1.85866  -0.7979 
 H                    -2.32979   2.39669  -1.12342 
 C                    -3.07393   0.56646  -0.31089 
 C                    -6.59183  -0.20177   0.57188 
 H                    -7.64222   0.05175   0.60702 
 C                    -4.38972  -1.33863   0.82124 
 H                    -3.62172  -2.02541   1.14262 
 S                    -6.02593  -1.67732   1.22941 
 
                          Input orientation:                          
 ---------------------------------------------------------------------
 Center     Atomic      Atomic             Coordinates (Angstroms)
 Number     Number       Type             X           Y           Z
 ---------------------------------------------------------------------
      1          7           0        1.565251    1.428878   -0.303400
      2          6           0        0.195596    1.802387   -0.387958
      3          6           0        1.758472    0.048812   -0.335951
      4          6           0        0.493009   -0.520257   -0.395231
      5          6           0       -0.492957    0.520128   -0.395108
      6          6           0       -1.758426   -0.048946   -0.335760
      7          6           0       -0.195514   -1.802517   -0.388249
      8          7           0       -1.565215   -1.429043   -0.303563
      9          8           0       -0.184369    2.967364   -0.467186
     10          8           0        0.184427   -2.967446   -0.468091
     11          1           0       -2.289944   -2.106714   -0.492187
     12          1           0        2.290093    2.106700   -0.491033
     13          6           0        5.549798   -0.554594    0.052169
     14          6           0        4.260413    0.112775    0.178876
     15          6           0        3.074002   -0.566552   -0.311238
     16          6           0        3.214300   -1.858577   -0.798617
     17          1           0        2.330087   -2.396600   -1.124354
     18          6           0        4.479051   -2.501399   -0.896079
     19          1           0        4.520010   -3.507528   -1.301222
     20          6           0        5.630995   -1.865661   -0.507212
     21          1           0        6.598331   -2.350582   -0.599447
     22          6           0        4.389482    1.338542    0.821129
     23          1           0        3.621348    2.025236    1.142404
     24          6           0        6.591735    0.201915    0.571879
     25          1           0        7.642152   -0.051485    0.607096
     26         16           0        6.025598    1.677305    1.229582
     27          6           0       -4.260452   -0.112832    0.179072
     28          6           0       -5.549757    0.554713    0.052403
     29          6           0       -5.630790    1.865892   -0.506719
     30          1           0       -6.598068    2.350942   -0.598890
     31          6           0       -4.478750    2.501634   -0.895292
     32          1           0       -4.519577    3.507874   -1.300170
     33          6           0       -3.214083    1.858659   -0.797897
     34          1           0       -2.329794    2.396690   -1.123421
     35          6           0       -3.073934    0.566464   -0.310888
     36          6           0       -6.591831   -0.201773    0.571875
     37          1           0       -7.642221    0.051750    0.607024
     38          6           0       -4.389722   -1.338630    0.821239
     39          1           0       -3.621715   -2.025406    1.142617
     40         16           0       -6.025927   -1.677315    1.229410
 ---------------------------------------------------------------------
                    Distance matrix (angstroms):
                    1          2          3          4          5
     1  N    0.000000
     2  C    1.422186   0.000000
     3  C    1.393907   2.349534   0.000000
     4  C    2.226491   2.341620   1.388795   0.000000
     5  C    2.251768   1.455453   2.300993   1.433363   0.000000
     6  C    3.637560   2.692278   3.518256   2.301006   1.388805
     7  C    3.680952   3.626058   2.692251   1.455439   2.341623
     8  N    4.238812   3.680994   3.637582   2.251795   2.226519
     9  O    2.335580   1.227934   3.508532   3.553522   2.467668
    10  O    4.611015   4.770519   3.404833   2.467644   3.553498
    11  H    5.234365   4.633556   4.589158   3.204852   3.184162
    12  H    1.009973   2.118997   2.131097   3.184273   3.204962
    13  C    4.465110   5.866562   3.858612   5.076658   6.153858
    14  C    3.037864   4.438336   2.555161   3.863115   4.805197
    15  C    2.501626   3.728670   1.452550   2.582774   3.729759
    16  C    3.711060   4.762759   2.443691   3.059288   4.423213
    17  H    3.986630   4.767580   2.632178   2.725278   4.124158
    18  C    4.928344   6.093336   3.770792   4.479319   5.839646
    19  H    5.839037   6.908676   4.604932   5.095228   6.494066
    20  C    5.236965   6.558381   4.323306   5.312396   6.573229
    21  H    6.301100   7.634585   5.408397   6.377049   7.653045
    22  C    3.041218   4.389274   3.150310   4.485217   5.097769
    23  H    2.583317   3.758650   3.092263   4.316290   4.642930
    24  C    5.247580   6.662837   4.920165   6.217016   7.157457
    25  H    6.320538   7.738099   5.959621   7.234269   8.216517
    26  S    4.722970   6.051529   4.828172   6.170805   6.816908
    27  C    6.045533   4.883232   6.043081   4.805331   3.863203
    28  C    7.177332   5.895735   7.336005   6.153938   5.076681
    29  C    7.212165   5.827942   7.611316   6.573207   5.312331
    30  H    8.220541   6.819038   8.671834   7.653015   6.376973
    31  C    6.166935   4.753509   6.725484   5.839544   4.479185
    32  H    6.506989   5.096437   7.232477   6.493903   5.095040
    33  C    4.824031   3.434695   5.311802   4.423111   3.059155
    34  H    4.096397   2.696608   4.779807   4.123961   2.725050
    35  C    4.718671   3.496180   4.860117   3.729767   2.582766
    36  C    8.364396   7.141926   8.403243   7.157631   6.217110
    37  H    9.354298   8.092348   9.447870   8.216671   7.234336
    38  C    6.662253   5.687995   6.408149   5.098097   4.485450
    39  H    6.397473   5.618409   5.952727   4.643426   4.316650
    40  S    8.344095   7.309689   8.125684   6.817241   6.171027
                    6          7          8          9         10
     6  C    0.000000
     7  C    2.349566   0.000000
     8  N    1.393928   1.422229   0.000000
     9  O    3.404857   4.770547   4.611063   0.000000
    10  O    3.508537   1.227921   2.335594   5.946258   0.000000
    11  H    2.131054   2.118956   1.009975   5.493664   2.619915
    12  H    4.589273   4.633658   5.234503   2.619976   5.493752
    13  C    7.335960   5.895752   7.177368   6.749414   5.905906
    14  C    6.042965   4.883161   6.045485   5.321857   5.149756
    15  C    4.860131   3.496180   4.718716   4.809352   3.760125
    16  C    5.311968   3.434876   4.824245   5.911895   3.243296
    17  H    4.780094   2.696933   4.096736   5.960408   2.315254
    18  C    6.725667   4.753723   6.167185   7.199917   4.340987
    19  H    7.232749   5.096739   6.507333   8.046802   4.447817
    20  C    7.611399   5.828065   7.212319   7.561626   5.557028
    21  H    8.671934   6.819187   8.220722   8.619922   6.444838
    22  C    6.407830   5.687797   6.662047   5.023239   6.155169
    23  H    5.952241   5.618098   6.397132   4.238144   6.271602
    24  C    8.403090   7.141872   8.364344   7.392087   7.223571
    25  H    9.447743   8.092332   9.354281   8.457066   8.079388
    26  S    8.125347   7.309499   8.343882   6.565589   7.653436
    27  C    2.555243   4.438537   3.038034   5.149729   5.322085
    28  C    3.858661   5.866739   4.465263   5.905781   6.749621
    29  C    4.323313   6.558467   5.237057   5.556825   7.561706
    30  H    5.408404   7.634677   6.301199   6.444599   8.620011
    31  C    3.770769   6.093350   4.928392   4.340724   7.199900
    32  H    4.604890   6.908645   5.839061   4.447476   8.046725
    33  C    2.443658   4.762749   3.711080   3.243110   5.911847
    34  H    2.632111   4.767491   3.986600   2.314986   5.960262
    35  C    1.452553   3.728721   2.501666   3.760098   4.809381
    36  C    4.920260   6.663114   5.247804   7.223479   7.392439
    37  H    5.959700   7.738367   6.320753   8.079250   8.457413
    38  C    3.150500   4.389696   3.041578   6.155211   5.023769
    39  H    3.092546   3.759266   2.583849   6.271727   4.238931
    40  S    4.828344   6.051959   4.723304   7.653449   6.566159
                   11         12         13         14         15
    11  H    0.000000
    12  H    6.223311   0.000000
    13  C    8.010428   4.243021   0.000000
    14  C    6.948643   2.882130   1.457378   0.000000
    15  C    5.583615   2.791615   2.502354   1.452332   0.000000
    16  C    5.518349   4.083159   2.806913   2.436406   1.388002
    17  H    4.672083   4.547791   3.891495   3.423672   2.136268
    18  C    6.792510   5.117634   2.415724   2.835002   2.461673
    19  H    6.999449   6.094956   3.407631   3.919780   3.423499
    20  C    7.924620   5.190524   1.427724   2.502683   2.874770
    21  H    8.892267   6.200003   2.179357   3.484218   3.960647
    22  C    7.629503   2.592155   2.349808   1.389839   2.577232
    23  H    7.395152   2.108789   3.400449   2.234792   3.021594
    24  C    9.238302   4.823081   1.388538   2.365895   3.707409
    25  H   10.201908   5.874367   2.222388   3.412699   4.687923
    26  S    9.296856   4.135081   2.567890   2.582173   4.015089
    27  C    2.882543   6.948741   9.821011   8.523851   7.364814
    28  C    4.243366   8.010445  11.154850   9.820934   8.703947
    29  C    5.190671   7.924558  11.453238  10.068732   9.040376
    30  H    6.200162   8.892170  12.507464  11.113997  10.106604
    31  C    5.117640   6.792395  10.526632   9.123237   8.173062
    32  H    6.094891   6.999257  10.941882   9.529035   8.674179
    33  C    4.083096   5.518301   9.129732   7.737589   6.757107
    34  H    4.547603   4.671977   8.495885   7.095285   6.216225
    35  C    2.791664   5.583687   8.703869   7.364669   6.251467
    36  C    4.823615   9.238365  12.157867  10.863912   9.712944
    37  H    5.874870  10.201932  13.217597  11.910488  10.773251
    38  C    2.593089   7.629698  10.000012   8.794546   7.588530
    39  H    2.110168   7.395444   9.352487   8.223658   7.005325
    40  S    4.135922   9.297036  11.689474  10.493657   9.296026
                   16         17         18         19         20
    16  C    0.000000
    17  H    1.085083   0.000000
    18  C    1.422081   2.163594   0.000000
    19  H    2.162529   2.461952   1.085410   0.000000
    20  C    2.434211   3.399817   1.371990   2.135525   0.000000
    21  H    3.425406   4.300646   2.145247   2.480006   1.085999
    22  C    3.771763   4.687995   4.207371   5.292051   3.684123
    23  H    4.360878   5.134022   5.038005   6.114767   4.679636
    24  C    4.186998   5.271729   3.731788   4.643331   2.522366
    25  H    4.984725   6.059333   4.273970   5.033258   2.928766
    26  S    4.951712   5.982852   4.936781   5.962739   3.965447
    27  C    7.737921   7.095754   9.123602   9.529520  10.068968
    28  C    9.130000   8.496290  10.526938  10.942317  11.453410
    29  C    9.601692   9.051291  11.019697  11.512759  11.863907
    30  H   10.679069  10.125573  12.096946  12.586763  12.935924
    31  C    8.843291   8.390794  10.260241  10.828319  11.019565
    32  H    9.426728   9.044978  10.828202  11.442465  11.512505
    33  C    7.425763   6.996544   8.843306   9.426850   9.601586
    34  H    6.996411   6.685067   8.390669   9.044955   9.051050
    35  C    6.757262   6.216504   8.173238   8.674454   9.040440
    36  C   10.039096   9.343184  11.402087  11.743488  12.382666
    37  H   11.112571  10.413406  12.478106  12.815215  13.457201
    38  C    7.792011   7.075342   9.108038   9.412347  10.122120
    39  H    7.108257   6.379725   8.366915   8.628831   9.400005
    40  S    9.461900   8.710944  10.749483  10.998662  11.787076
                   21         22         23         24         25
    21  H    0.000000
    22  C    4.528431   0.000000
    23  H    5.571737   1.079257   0.000000
    24  C    2.808432   2.490776   3.531741   0.000000
    25  H    2.798420   3.543705   4.556993   1.081123   0.000000
    26  S    4.460633   1.720020   2.430859   1.711683   2.447335
    27  C   11.114260   8.794321   8.223267  10.863854  11.910455
    28  C   12.507665   9.999690   9.351989  12.157720  13.217474
    29  C   12.935944  10.121617   9.399311  12.382339  13.456891
    30  H   14.008900  11.125092  10.371820  13.414914  14.491719
    31  C   12.096828   9.107383   8.366047  11.401620  12.477654
    32  H   12.586517   9.411548   8.627806  11.742878  12.814615
    33  C   10.678978   7.791403   7.107435  10.038683  11.112178
    34  H   10.125342   7.074576   6.378717   9.342631  10.412875
    35  C   10.106688   7.588158   7.004775   9.712741  10.773071
    36  C   13.415280  11.091615  10.468720  13.189745  14.234820
    37  H   14.492070  12.102213  11.447675  14.234791  15.284722
    38  C   11.125633   9.178326   8.694595  11.091792  12.102421
    39  H   10.372554   8.694756   8.298775  10.469062  11.448050
    40  S   12.773797  10.850937  10.333749  12.773772  13.778497
                   26         27         28         29         30
    26  S    0.000000
    27  C   10.493378   0.000000
    28  C   11.689089   1.457384   0.000000
    29  C   11.786504   2.502695   1.427716   0.000000
    30  H   12.773177   3.484230   2.179352   1.086000   0.000000
    31  C   10.748764   2.835021   2.415716   1.371989   2.145244
    32  H   10.997788   3.919798   3.407622   2.135524   2.480002
    33  C    9.461251   2.436418   2.806895   2.434196   3.425391
    34  H    8.710150   3.423686   3.891478   3.399800   4.300627
    35  C    9.295617   1.452353   2.502362   2.874783   3.960660
    36  C   12.773528   2.365911   1.388539   2.522341   2.808395
    37  H   13.778218   3.412710   2.222382   2.928718   2.798351
    38  C   10.850875   1.389845   2.349795   3.684112   4.528410
    39  H   10.333841   2.234803   3.400430   4.679625   5.571709
    40  S   12.509705   2.582193   2.567885   3.965425   4.460592
                   31         32         33         34         35
    31  C    0.000000
    32  H    1.085409   0.000000
    33  C    1.422071   2.162522   0.000000
    34  H    2.163578   2.461934   1.085085   0.000000
    35  C    2.461690   3.423515   1.388016   2.136277   0.000000
    36  C    3.731769   4.643304   4.186984   5.271717   3.707433
    37  H    4.273925   5.033199   4.984689   6.059296   4.687935
    38  C    4.207378   5.292054   3.771788   4.688030   2.577284
    39  H    5.038023   6.114781   4.360931   5.134094   3.021677
    40  S    4.936773   5.962722   4.951722   5.982870   4.015137
                   36         37         38         39         40
    36  C    0.000000
    37  H    1.081124   0.000000
    38  C    2.490765   3.543698   0.000000
    39  H    3.531710   4.556962   1.079250   0.000000
    40  S    1.711673   2.447333   1.720023   2.430830   0.000000
 Stoichiometry    C22H12N2O2S2
 Framework group  C1[X(C22H12N2O2S2)]
 Deg. of freedom   114
 Full point group                 C1      NOp   1
 Largest Abelian subgroup         C1      NOp   1
 Largest concise Abelian subgroup C1      NOp   1
                         Standard orientation:                         
 ---------------------------------------------------------------------
 Center     Atomic      Atomic             Coordinates (Angstroms)
 Number     Number       Type             X           Y           Z
 ---------------------------------------------------------------------
      1          7           0        1.565251    1.428878   -0.303400
      2          6           0        0.195596    1.802387   -0.387958
      3          6           0        1.758472    0.048812   -0.335951
      4          6           0        0.493009   -0.520257   -0.395231
      5          6           0       -0.492957    0.520128   -0.395108
      6          6           0       -1.758426   -0.048946   -0.335760
      7          6           0       -0.195514   -1.802517   -0.388249
      8          7           0       -1.565215   -1.429043   -0.303563
      9          8           0       -0.184369    2.967364   -0.467186
     10          8           0        0.184427   -2.967446   -0.468091
     11          1           0       -2.289944   -2.106714   -0.492187
     12          1           0        2.290093    2.106700   -0.491033
     13          6           0        5.549798   -0.554594    0.052169
     14          6           0        4.260413    0.112775    0.178876
     15          6           0        3.074002   -0.566552   -0.311238
     16          6           0        3.214300   -1.858577   -0.798617
     17          1           0        2.330087   -2.396600   -1.124354
     18          6           0        4.479051   -2.501399   -0.896079
     19          1           0        4.520010   -3.507528   -1.301222
     20          6           0        5.630995   -1.865661   -0.507212
     21          1           0        6.598331   -2.350582   -0.599447
     22          6           0        4.389482    1.338542    0.821129
     23          1           0        3.621348    2.025236    1.142404
     24          6           0        6.591735    0.201915    0.571879
     25          1           0        7.642152   -0.051485    0.607096
     26         16           0        6.025598    1.677305    1.229582
     27          6           0       -4.260452   -0.112832    0.179072
     28          6           0       -5.549757    0.554713    0.052403
     29          6           0       -5.630790    1.865892   -0.506719
     30          1           0       -6.598068    2.350942   -0.598890
     31          6           0       -4.478750    2.501634   -0.895292
     32          1           0       -4.519577    3.507874   -1.300170
     33          6           0       -3.214083    1.858659   -0.797897
     34          1           0       -2.329794    2.396690   -1.123421
     35          6           0       -3.073934    0.566464   -0.310888
     36          6           0       -6.591831   -0.201773    0.571875
     37          1           0       -7.642221    0.051750    0.607024
     38          6           0       -4.389722   -1.338630    0.821239
     39          1           0       -3.621715   -2.025406    1.142617
     40         16           0       -6.025927   -1.677315    1.229410
 ---------------------------------------------------------------------
 Rotational constants (GHZ):      0.4081022      0.0686708      0.0615688
 Standard basis: 6-31+G(d,p) (6D, 7F)
 There are   600 symmetry adapted basis functions of A   symmetry.
 Integral buffers will be    262144 words long.
 Raffenetti 2 integral format.
 Two-electron integral symmetry is turned on.
   600 basis functions,  1028 primitive gaussians,   600 cartesian basis functions
   103 alpha electrons      103 beta electrons
       nuclear repulsion energy      2591.8106419842 Hartrees.
 NAtoms=   40 NActive=   40 NUniq=   40 SFac= 1.00D+00 NAtFMM=   50 NAOKFM=F Big=F
 One-electron integrals computed using PRISM.
 NBasis=   600 RedAO= T  NBF=   600
 NBsUse=   590 1.00D-06 NBFU=   590
 Harris functional with IExCor=20419 diagonalized for initial guess.
 ExpMin= 4.05D-02 ExpMax= 2.19D+04 ExpMxC= 3.30D+03 IAcc=2 IRadAn=         0 AccDes= 0.00D+00
 HarFok:  IExCor=20419 AccDes= 0.00D+00 IRadAn=         0 IDoV= 1
 ScaDFX=  1.000000  1.000000  1.000000  1.000000
 FoFCou: FMM=F IPFlag=           0 FMFlag=      100000 FMFlg1=           0
         NFxFlg=           0 DoJE=T BraDBF=F KetDBF=T FulRan=T
         Omega=  0.000000  0.000000  1.000000  0.000000  0.000000 ICntrl=     500 IOpCl=  0
         NMat0=    1 NMatS0=    1 NMatT0=    0 NMatD0=    1 NMtDS0=    0 NMtDT0=    0
         I1Cent=           4 NGrid=           0.
 Petite list used in FoFCou.
 Initial guess orbital symmetries:
       Occupied  (A) (A) (A) (A) (A) (A) (A) (A) (A) (A) (A) (A)
                 (A) (A) (A) (A) (A) (A) (A) (A) (A) (A) (A) (A)
                 (A) (A) (A) (A) (A) (A) (A) (A) (A) (A) (A) (A)
                 (A) (A) (A) (A) (A) (A) (A) (A) (A) (A) (A) (A)
                 (A) (A) (A) (A) (A) (A) (A) (A) (A) (A) (A) (A)
                 (A) (A) (A) (A) (A) (A) (A) (A) (A) (A) (A) (A)
                 (A) (A) (A) (A) (A) (A) (A) (A) (A) (A) (A) (A)
                 (A) (A) (A) (A) (A) (A) (A) (A) (A) (A) (A) (A)
                 (A) (A) (A) (A) (A) (A) (A)
       Virtual   (A) (A) (A) (A) (A) (A) (A) (A) (A) (A) (A) (A)
                 (A) (A) (A) (A) (A) (A) (A) (A) (A) (A) (A) (A)
                 (A) (A) (A) (A) (A) (A) (A) (A) (A) (A) (A) (A)
                 (A) (A) (A) (A) (A) (A) (A) (A) (A) (A) (A) (A)
                 (A) (A) (A) (A) (A) (A) (A) (A) (A) (A) (A) (A)
                 (A) (A) (A) (A) (A) (A) (A) (A) (A) (A) (A) (A)
                 (A) (A) (A) (A) (A) (A) (A) (A) (A) (A) (A) (A)
                 (A) (A) (A) (A) (A) (A) (A) (A) (A) (A) (A) (A)
                 (A) (A) (A) (A) (A) (A) (A) (A) (A) (A) (A) (A)
                 (A) (A) (A) (A) (A) (A) (A) (A) (A) (A) (A) (A)
                 (A) (A) (A) (A) (A) (A) (A) (A) (A) (A) (A) (A)
                 (A) (A) (A) (A) (A) (A) (A) (A) (A) (A) (A) (A)
                 (A) (A) (A) (A) (A) (A) (A) (A) (A) (A) (A) (A)
                 (A) (A) (A) (A) (A) (A) (A) (A) (A) (A) (A) (A)
                 (A) (A) (A) (A) (A) (A) (A) (A) (A) (A) (A) (A)
                 (A) (A) (A) (A) (A) (A) (A) (A) (A) (A) (A) (A)
                 (A) (A) (A) (A) (A) (A) (A) (A) (A) (A) (A) (A)
                 (A) (A) (A) (A) (A) (A) (A) (A) (A) (A) (A) (A)
                 (A) (A) (A) (A) (A) (A) (A) (A) (A) (A) (A) (A)
                 (A) (A) (A) (A) (A) (A) (A) (A) (A) (A) (A) (A)
                 (A) (A) (A) (A) (A) (A) (A) (A) (A) (A) (A) (A)
                 (A) (A) (A) (A) (A) (A) (A) (A) (A) (A) (A) (A)
                 (A) (A) (A) (A) (A) (A) (A) (A) (A) (A) (A) (A)
                 (A) (A) (A) (A) (A) (A) (A) (A) (A) (A) (A) (A)
                 (A) (A) (A) (A) (A) (A) (A) (A) (A) (A) (A) (A)
                 (A) (A) (A) (A) (A) (A) (A) (A) (A) (A) (A) (A)
                 (A) (A) (A) (A) (A) (A) (A) (A) (A) (A) (A) (A)
                 (A) (A) (A) (A) (A) (A) (A) (A) (A) (A) (A) (A)
                 (A) (A) (A) (A) (A) (A) (A) (A) (A) (A) (A) (A)
                 (A) (A) (A) (A) (A) (A) (A) (A) (A) (A) (A) (A)
                 (A) (A) (A) (A) (A) (A) (A) (A) (A) (A) (A) (A)
                 (A) (A) (A) (A) (A) (A) (A) (A) (A) (A) (A) (A)
                 (A) (A) (A) (A) (A) (A) (A) (A) (A) (A) (A) (A)
                 (A) (A) (A) (A) (A) (A) (A) (A) (A) (A) (A) (A)
                 (A) (A) (A) (A) (A) (A) (A) (A) (A) (A) (A) (A)
                 (A) (A) (A) (A) (A) (A) (A) (A) (A) (A) (A) (A)
                 (A) (A) (A) (A) (A) (A) (A) (A) (A) (A) (A) (A)
                 (A) (A) (A) (A) (A) (A) (A) (A) (A) (A) (A) (A)
                 (A) (A) (A) (A) (A) (A) (A) (A) (A) (A) (A) (A)
                 (A) (A) (A) (A) (A) (A) (A) (A) (A) (A) (A) (A)
                 (A) (A) (A) (A) (A) (A) (A)
 The electronic state of the initial guess is 1-A.
 Requested convergence on RMS density matrix=1.00D-08 within 128 cycles.
 Requested convergence on MAX density matrix=1.00D-06.
 Requested convergence on             energy=1.00D-06.
 No special actions if energy rises.
 FoFJK:  IHMeth= 1 ICntrl=     0 DoSepK=T KAlg= 1 I1Cent= 0 FoldK=F
 FoFJK:  IHMeth= 1 ICntrl=     0 DoSepK=T KAlg= 1 I1Cent= 0 FoldK=F
 FoFJK:  IHMeth= 1 ICntrl=     0 DoSepK=T KAlg= 1 I1Cent= 0 FoldK=F
 FoFJK:  IHMeth= 1 ICntrl=     0 DoSepK=T KAlg= 1 I1Cent= 0 FoldK=F
 FoFJK:  IHMeth= 1 ICntrl=     0 DoSepK=T KAlg= 1 I1Cent= 0 FoldK=F
 FoFJK:  IHMeth= 1 ICntrl=     0 DoSepK=T KAlg= 1 I1Cent= 0 FoldK=F
 FoFJK:  IHMeth= 1 ICntrl=     0 DoSepK=T KAlg= 1 I1Cent= 0 FoldK=F
 FoFJK:  IHMeth= 1 ICntrl=     0 DoSepK=T KAlg= 1 I1Cent= 0 FoldK=F
 FoFJK:  IHMeth= 1 ICntrl=     0 DoSepK=T KAlg= 1 I1Cent= 0 FoldK=F
 FoFJK:  IHMeth= 1 ICntrl=     0 DoSepK=T KAlg= 1 I1Cent= 0 FoldK=F
 FoFJK:  IHMeth= 1 ICntrl=     0 DoSepK=T KAlg= 1 I1Cent= 0 FoldK=F
 FoFJK:  IHMeth= 1 ICntrl=     0 DoSepK=T KAlg= 1 I1Cent= 0 FoldK=F
 FoFJK:  IHMeth= 1 ICntrl=     0 DoSepK=T KAlg= 1 I1Cent= 0 FoldK=F
 FoFJK:  IHMeth= 1 ICntrl=     0 DoSepK=T KAlg= 1 I1Cent= 0 FoldK=F
 FoFJK:  IHMeth= 1 ICntrl=     0 DoSepK=T KAlg= 1 I1Cent= 0 FoldK=F
 FoFJK:  IHMeth= 1 ICntrl=     0 DoSepK=T KAlg= 1 I1Cent= 0 FoldK=F
 FoFJK:  IHMeth= 1 ICntrl=     0 DoSepK=T KAlg= 1 I1Cent= 0 FoldK=F
 FoFJK:  IHMeth= 1 ICntrl=     0 DoSepK=T KAlg= 1 I1Cent= 0 FoldK=F
 SCF Done:  E(RCAM-B3LYP) =  -1901.35847983     A.U. after   18 cycles
             Convg  =    0.3278D-08             -V/T =  2.0069
 ExpMin= 4.05D-02 ExpMax= 2.19D+04 ExpMxC= 3.30D+03 IAcc=3 IRadAn=         5 AccDes= 0.00D+00
 HarFok:  IExCor=  205 AccDes= 0.00D+00 IRadAn=         5 IDoV=-2
 ScaDFX=  1.000000  1.000000  1.000000  1.000000
 Range of M.O.s used for correlation:    37   590
 NBasis=   600 NAE=   103 NBE=   103 NFC=    36 NFV=     0
 NROrb=    554 NOA=    67 NOB=    67 NVA=   487 NVB=   487

 **** Warning!!: The largest alpha MO coefficient is  0.98638507D+02

 Orbital symmetries:
       Occupied  (A) (A) (A) (A) (A) (A) (A) (A) (A) (A) (A) (A)
                 (A) (A) (A) (A) (A) (A) (A) (A) (A) (A) (A) (A)
                 (A) (A) (A) (A) (A) (A) (A) (A) (A) (A) (A) (A)
                 (A) (A) (A) (A) (A) (A) (A) (A) (A) (A) (A) (A)
                 (A) (A) (A) (A) (A) (A) (A) (A) (A) (A) (A) (A)
                 (A) (A) (A) (A) (A) (A) (A) (A) (A) (A) (A) (A)
                 (A) (A) (A) (A) (A) (A) (A) (A) (A) (A) (A) (A)
                 (A) (A) (A) (A) (A) (A) (A) (A) (A) (A) (A) (A)
                 (A) (A) (A) (A) (A) (A) (A)
       Virtual   (A) (A) (A) (A) (A) (A) (A) (A) (A) (A) (A) (A)
                 (A) (A) (A) (A) (A) (A) (A) (A) (A) (A) (A) (A)
                 (A) (A) (A) (A) (A) (A) (A) (A) (A) (A) (A) (A)
                 (A) (A) (A) (A) (A) (A) (A) (A) (A) (A) (A) (A)
                 (A) (A) (A) (A) (A) (A) (A) (A) (A) (A) (A) (A)
                 (A) (A) (A) (A) (A) (A) (A) (A) (A) (A) (A) (A)
                 (A) (A) (A) (A) (A) (A) (A) (A) (A) (A) (A) (A)
                 (A) (A) (A) (A) (A) (A) (A) (A) (A) (A) (A) (A)
                 (A) (A) (A) (A) (A) (A) (A) (A) (A) (A) (A) (A)
                 (A) (A) (A) (A) (A) (A) (A) (A) (A) (A) (A) (A)
                 (A) (A) (A) (A) (A) (A) (A) (A) (A) (A) (A) (A)
                 (A) (A) (A) (A) (A) (A) (A) (A) (A) (A) (A) (A)
                 (A) (A) (A) (A) (A) (A) (A) (A) (A) (A) (A) (A)
                 (A) (A) (A) (A) (A) (A) (A) (A) (A) (A) (A) (A)
                 (A) (A) (A) (A) (A) (A) (A) (A) (A) (A) (A) (A)
                 (A) (A) (A) (A) (A) (A) (A) (A) (A) (A) (A) (A)
                 (A) (A) (A) (A) (A) (A) (A) (A) (A) (A) (A) (A)
                 (A) (A) (A) (A) (A) (A) (A) (A) (A) (A) (A) (A)
                 (A) (A) (A) (A) (A) (A) (A) (A) (A) (A) (A) (A)
                 (A) (A) (A) (A) (A) (A) (A) (A) (A) (A) (A) (A)
                 (A) (A) (A) (A) (A) (A) (A) (A) (A) (A) (A) (A)
                 (A) (A) (A) (A) (A) (A) (A) (A) (A) (A) (A) (A)
                 (A) (A) (A) (A) (A) (A) (A) (A) (A) (A) (A) (A)
                 (A) (A) (A) (A) (A) (A) (A) (A) (A) (A) (A) (A)
                 (A) (A) (A) (A) (A) (A) (A) (A) (A) (A) (A) (A)
                 (A) (A) (A) (A) (A) (A) (A) (A) (A) (A) (A) (A)
                 (A) (A) (A) (A) (A) (A) (A) (A) (A) (A) (A) (A)
                 (A) (A) (A) (A) (A) (A) (A) (A) (A) (A) (A) (A)
                 (A) (A) (A) (A) (A) (A) (A) (A) (A) (A) (A) (A)
                 (A) (A) (A) (A) (A) (A) (A) (A) (A) (A) (A) (A)
                 (A) (A) (A) (A) (A) (A) (A) (A) (A) (A) (A) (A)
                 (A) (A) (A) (A) (A) (A) (A) (A) (A) (A) (A) (A)
                 (A) (A) (A) (A) (A) (A) (A) (A) (A) (A) (A) (A)
                 (A) (A) (A) (A) (A) (A) (A) (A) (A) (A) (A) (A)
                 (A) (A) (A) (A) (A) (A) (A) (A) (A) (A) (A) (A)
                 (A) (A) (A) (A) (A) (A) (A) (A) (A) (A) (A) (A)
                 (A) (A) (A) (A) (A) (A) (A) (A) (A) (A) (A) (A)
                 (A) (A) (A) (A) (A) (A) (A) (A) (A) (A) (A) (A)
                 (A) (A) (A) (A) (A) (A) (A) (A) (A) (A) (A) (A)
                 (A) (A) (A) (A) (A) (A) (A) (A) (A) (A) (A) (A)
                 (A) (A) (A) (A) (A) (A) (A)
    40 initial guesses have been made.
 Convergence on wavefunction:    0.001000000000000
 Iteration     1 Dimension    40 NMult    40
 CISAX will form    20 AO SS matrices at one time.
 FoFJK:  IHMeth= 1 ICntrl=     0 DoSepK=T KAlg= 1 I1Cent= 0 FoldK=F
 FoFJK:  IHMeth= 1 ICntrl=     0 DoSepK=T KAlg= 1 I1Cent= 0 FoldK=F
 FoFJK:  IHMeth= 1 ICntrl=     0 DoSepK=T KAlg= 1 I1Cent= 0 FoldK=F
 FoFJK:  IHMeth= 1 ICntrl=     0 DoSepK=T KAlg= 1 I1Cent= 0 FoldK=F
 New state      3 was old state      4
 New state      4 was old state      3
 New state      5 was old state     10
 No map to state      6
 New state      7 was old state      5
 New state      9 was old state      7
 No map to state     10
 Iteration     2 Dimension    60 NMult    60
 FoFJK:  IHMeth= 1 ICntrl=     0 DoSepK=T KAlg= 1 I1Cent= 0 FoldK=F
 FoFJK:  IHMeth= 1 ICntrl=     0 DoSepK=T KAlg= 1 I1Cent= 0 FoldK=F
 New state      2 was old state      4
 New state      3 was old state      2
 New state      4 was old state      3
 New state      5 was old state      7
 New state      6 was old state      5
 New state      7 was old state      6
 Iteration     3 Dimension    80 NMult    80
 FoFJK:  IHMeth= 1 ICntrl=     0 DoSepK=T KAlg= 1 I1Cent= 0 FoldK=F
 FoFJK:  IHMeth= 1 ICntrl=     0 DoSepK=T KAlg= 1 I1Cent= 0 FoldK=F
 New state      5 was old state      6
 New state      6 was old state      5
 Iteration     4 Dimension   100 NMult   100
 FoFJK:  IHMeth= 1 ICntrl=     0 DoSepK=T KAlg= 1 I1Cent= 0 FoldK=F
 FoFJK:  IHMeth= 1 ICntrl=     0 DoSepK=T KAlg= 1 I1Cent= 0 FoldK=F
 Iteration     5 Dimension   120 NMult   120
 FoFJK:  IHMeth= 1 ICntrl=     0 DoSepK=T KAlg= 1 I1Cent= 0 FoldK=F
 FoFJK:  IHMeth= 1 ICntrl=     0 DoSepK=T KAlg= 1 I1Cent= 0 FoldK=F
 Iteration     6 Dimension   134 NMult   134
 FoFJK:  IHMeth= 1 ICntrl=     0 DoSepK=T KAlg= 1 I1Cent= 0 FoldK=F
 FoFJK:  IHMeth= 1 ICntrl=     0 DoSepK=T KAlg= 1 I1Cent= 0 FoldK=F
 Iteration     7 Dimension   136 NMult   136
 FoFJK:  IHMeth= 1 ICntrl=     0 DoSepK=T KAlg= 1 I1Cent= 0 FoldK=F
 FoFJK:  IHMeth= 1 ICntrl=     0 DoSepK=T KAlg= 1 I1Cent= 0 FoldK=F
 Iteration     8 Dimension   138 NMult   138
 FoFJK:  IHMeth= 1 ICntrl=     0 DoSepK=T KAlg= 1 I1Cent= 0 FoldK=F
 FoFJK:  IHMeth= 1 ICntrl=     0 DoSepK=T KAlg= 1 I1Cent= 0 FoldK=F
 Iteration     9 Dimension   140 NMult   140
 FoFJK:  IHMeth= 1 ICntrl=     0 DoSepK=T KAlg= 1 I1Cent= 0 FoldK=F
 FoFJK:  IHMeth= 1 ICntrl=     0 DoSepK=T KAlg= 1 I1Cent= 0 FoldK=F
 ***********************************************************************
 Excited states from <AA,BB:AA,BB> singles matrix:
 ***********************************************************************
 
 Ground to excited state transition densities written to RWF  633
 Ground to excited state transition electric dipole moments (Au):
       state          X           Y           Z        Dip. S.      Osc.
         1        -3.4935     -0.1178      0.0001     12.2185      0.7474
         2         0.0000      0.0002      0.0452      0.0020      0.0002
         3        -0.0010      0.0009      0.0408      0.0017      0.0001
         4         0.9013     -0.7856      0.0000      1.4294      0.1280
         5        -0.0002      0.0004     -0.0278      0.0008      0.0001
         6        -0.0066     -0.4227      0.0000      0.1787      0.0175
         7        -0.0004     -0.0002     -0.0247      0.0006      0.0001
         8         0.5824      0.7610     -0.0006      0.9183      0.0985
         9         0.0004      0.0005      0.5418      0.2936      0.0319
        10         0.4169      0.6416      0.0004      0.5855      0.0642
 Ground to excited state transition velocity dipole moments (Au):
       state          X           Y           Z        Dip. S.      Osc.
         1         0.3201      0.0128      0.0000      0.1026      0.7458
         2         0.0000      0.0000     -0.0072      0.0001      0.0003
         3         0.0001     -0.0001     -0.0068      0.0000      0.0002
         4        -0.1208      0.1090      0.0000      0.0265      0.1314
         5         0.0000     -0.0001     -0.0006      0.0000      0.0000
         6        -0.0056      0.0641      0.0000      0.0041      0.0188
         7         0.0001      0.0000      0.0049      0.0000      0.0001
         8        -0.0881     -0.1148      0.0001      0.0209      0.0867
         9        -0.0001     -0.0001     -0.0816      0.0067      0.0273
        10        -0.0648     -0.0976     -0.0001      0.0137      0.0555
 Ground to excited state transition magnetic dipole moments (Au):
       state          X           Y           Z
         1        -0.0707     -0.3726      0.0001
         2         0.0000      0.0001     -0.4516
         3        -0.0001     -0.0004     -0.4434
         4         0.1334      0.4390     -0.0005
         5         0.0000      0.0001      0.1214
         6        -0.0095     -0.0740      0.0008
         7        -0.0001      0.0001     -0.8324
         8         0.1997      0.1806      0.0020
         9         0.0002     -0.0004     -1.9107
        10        -0.0403      1.1842     -0.0007
 Ground to excited state transition velocity quadrupole moments (Au):
       state          XX          YY          ZZ          XY          XZ          YZ
         1        -0.0002      0.0000      0.0000      0.0001     -0.0367      0.0935
         2        -3.6519      0.1124     -0.0348      0.7369      0.0001      0.0000
         3         0.0136     -0.0424      0.0086     -0.0531      0.0001      0.0001
         4        -0.0007     -0.0001      0.0000      0.0002     -0.1037     -0.0623
         5         0.4537     -0.0670      0.0222      0.0304      0.0000     -0.0001
         6         0.0005      0.0000      0.0000      0.0000     -0.0398      0.0521
         7         0.4371     -0.0993      0.0097     -0.0332      0.0000      0.0001
         8         0.0022     -0.0002      0.0001      0.0018     -0.5538     -0.0024
         9        -1.5830      0.1139     -0.0599     -1.3944     -0.0004      0.0000
        10        -0.0008      0.0001      0.0000     -0.0008     -0.6607     -0.0610
 <0|del|b> * <b|rxdel|0> + <0|del|b> * <b|delr+rdel|0>
 Rotatory Strengths (R) in cgs (10**-40 erg-esu-cm/Gauss)
       state          XX          YY          ZZ    R(velocity)
         1       -16.5203     28.0782   -222.7016    -70.3812
         2        -5.8972     24.5682      0.0000      6.2237
         3         9.0281      7.0973      0.0000      5.3751
         4       155.7201    -22.5965     34.0271     55.7169
         5        -0.2062     -0.1237      0.0000     -0.1100
         6        -5.2819     -0.5763    -16.7429     -7.5337
         7       -10.1309     -9.3528      0.0000     -6.4946
         8      -185.2299    -38.1713     55.0038    -56.1325
         9       585.8740     91.5233      0.0001    225.7991
        10      -386.6538     14.0996   -112.5975   -161.7173
 1/2[<0|r|b>*<b|rxdel|0> + (<0|rxdel|b>*<b|r|0>)*]
 Rotatory Strengths (R) in cgs (10**-40 erg-esu-cm/Gauss)
       state          XX          YY          ZZ     R(length)
         1      -174.7164    -31.0320      0.0000    -68.5828
         2         0.0000      0.0000     14.4225      4.8075
         3        -0.0001      0.0002     12.8000      4.2667
         4       -85.0112    243.8981      0.0000     52.9623
         5         0.0000      0.0000      2.3876      0.7958
         6        -0.0447    -22.1289      0.0000     -7.3912
         7         0.0000      0.0000    -14.5176     -4.8392
         8       -82.2584    -97.2017      0.0008    -59.8198
         9        -0.0001      0.0001    732.1365    244.0455
        10        11.8747   -537.3042      0.0002   -175.1431
  1/2[<0|del|b>*<b|r|0> + (<0|r|b>*<b|del|0>)*] (Au)
       state          X           Y           Z        Dip. S.   Osc.(frdel)
         1        -1.1184     -0.0015      0.0000      1.1199      0.7466
         2         0.0000      0.0000     -0.0003      0.0003      0.0002
         3         0.0000      0.0000     -0.0003      0.0003      0.0002
         4        -0.1089     -0.0857      0.0000      0.1945      0.1297
         5         0.0000      0.0000      0.0000      0.0000      0.0000
         6         0.0000     -0.0271      0.0000      0.0271      0.0180
         7         0.0000      0.0000     -0.0001      0.0001      0.0001
         8        -0.0513     -0.0874      0.0000      0.1387      0.0925
         9         0.0000      0.0000     -0.0442      0.0442      0.0295
        10        -0.0270     -0.0626      0.0000      0.0896      0.0597

 Excitation energies and oscillator strengths:
 
 Excited State   1:      Singlet-A      2.4968 eV  496.57 nm  f=0.7474  <S**2>=0.000
     102 ->105        -0.10790
     103 ->104         0.69445
 This state for optimization and/or second-order correction.
 Total Energy, E(TD-HF/TD-KS) =  -1901.26672373    
 Copying the excited state density for this state as the 1-particle RhoCI density.
 
 Excited State   2:      Singlet-A      3.3428 eV  370.90 nm  f=0.0002  <S**2>=0.000
     101 ->105         0.11438
     102 ->104         0.48766
     103 ->105        -0.47891
 
 Excited State   3:      Singlet-A      3.5951 eV  344.87 nm  f=0.0001  <S**2>=0.000
     101 ->105         0.15928
     102 ->104         0.44712
     102 ->106         0.11083
     103 ->105         0.48811
 
 Excited State   4:      Singlet-A      3.6560 eV  339.13 nm  f=0.1280  <S**2>=0.000
     101 ->104         0.63864
     102 ->105         0.27063
 
 Excited State   5:      Singlet-A      3.9755 eV  311.87 nm  f=0.0001  <S**2>=0.000
      98 ->104         0.61403
      98 ->106         0.20808
     100 ->104        -0.15338
 
 Excited State   6:      Singlet-A      3.9944 eV  310.40 nm  f=0.0175  <S**2>=0.000
     101 ->104        -0.15885
     102 ->105         0.19800
     103 ->106         0.63425
 
 Excited State   7:      Singlet-A      4.0321 eV  307.49 nm  f=0.0001  <S**2>=0.000
      97 ->104         0.63138
      97 ->106         0.20657
     100 ->104        -0.11840
 
 Excited State   8:      Singlet-A      4.3801 eV  283.06 nm  f=0.0985  <S**2>=0.000
      96 ->104        -0.38967
      96 ->106        -0.14943
      98 ->108        -0.10395
      99 ->104         0.43775
     100 ->105         0.22498
 
 Excited State   9:      Singlet-A      4.4299 eV  279.88 nm  f=0.0319  <S**2>=0.000
      97 ->104         0.13634
      98 ->104         0.13490
      99 ->105         0.30248
     100 ->104         0.53129
     102 ->114        -0.10796
     103 ->115        -0.15822
 
 Excited State  10:      Singlet-A      4.4784 eV  276.85 nm  f=0.0642  <S**2>=0.000
      96 ->104         0.44444
      96 ->106         0.14501
      98 ->105         0.14908
      98 ->108         0.10766
      99 ->104         0.35390
     100 ->105         0.21838
     103 ->114         0.10359
 SavETr:  write IOETrn=   770 NScale= 10 NData=  16 NLR=1 LETran=     180.

 **********************************************************************

            Population analysis using the SCF density.

 **********************************************************************

 Orbital symmetries:
       Occupied  (A) (A) (A) (A) (A) (A) (A) (A) (A) (A) (A) (A)
                 (A) (A) (A) (A) (A) (A) (A) (A) (A) (A) (A) (A)
                 (A) (A) (A) (A) (A) (A) (A) (A) (A) (A) (A) (A)
                 (A) (A) (A) (A) (A) (A) (A) (A) (A) (A) (A) (A)
                 (A) (A) (A) (A) (A) (A) (A) (A) (A) (A) (A) (A)
                 (A) (A) (A) (A) (A) (A) (A) (A) (A) (A) (A) (A)
                 (A) (A) (A) (A) (A) (A) (A) (A) (A) (A) (A) (A)
                 (A) (A) (A) (A) (A) (A) (A) (A) (A) (A) (A) (A)
                 (A) (A) (A) (A) (A) (A) (A)
       Virtual   (A) (A) (A) (A) (A) (A) (A) (A) (A) (A) (A) (A)
                 (A) (A) (A) (A) (A) (A) (A) (A) (A) (A) (A) (A)
                 (A) (A) (A) (A) (A) (A) (A) (A) (A) (A) (A) (A)
                 (A) (A) (A) (A) (A) (A) (A) (A) (A) (A) (A) (A)
                 (A) (A) (A) (A) (A) (A) (A) (A) (A) (A) (A) (A)
                 (A) (A) (A) (A) (A) (A) (A) (A) (A) (A) (A) (A)
                 (A) (A) (A) (A) (A) (A) (A) (A) (A) (A) (A) (A)
                 (A) (A) (A) (A) (A) (A) (A) (A) (A) (A) (A) (A)
                 (A) (A) (A) (A) (A) (A) (A) (A) (A) (A) (A) (A)
                 (A) (A) (A) (A) (A) (A) (A) (A) (A) (A) (A) (A)
                 (A) (A) (A) (A) (A) (A) (A) (A) (A) (A) (A) (A)
                 (A) (A) (A) (A) (A) (A) (A) (A) (A) (A) (A) (A)
                 (A) (A) (A) (A) (A) (A) (A) (A) (A) (A) (A) (A)
                 (A) (A) (A) (A) (A) (A) (A) (A) (A) (A) (A) (A)
                 (A) (A) (A) (A) (A) (A) (A) (A) (A) (A) (A) (A)
                 (A) (A) (A) (A) (A) (A) (A) (A) (A) (A) (A) (A)
                 (A) (A) (A) (A) (A) (A) (A) (A) (A) (A) (A) (A)
                 (A) (A) (A) (A) (A) (A) (A) (A) (A) (A) (A) (A)
                 (A) (A) (A) (A) (A) (A) (A) (A) (A) (A) (A) (A)
                 (A) (A) (A) (A) (A) (A) (A) (A) (A) (A) (A) (A)
                 (A) (A) (A) (A) (A) (A) (A) (A) (A) (A) (A) (A)
                 (A) (A) (A) (A) (A) (A) (A) (A) (A) (A) (A) (A)
                 (A) (A) (A) (A) (A) (A) (A) (A) (A) (A) (A) (A)
                 (A) (A) (A) (A) (A) (A) (A) (A) (A) (A) (A) (A)
                 (A) (A) (A) (A) (A) (A) (A) (A) (A) (A) (A) (A)
                 (A) (A) (A) (A) (A) (A) (A) (A) (A) (A) (A) (A)
                 (A) (A) (A) (A) (A) (A) (A) (A) (A) (A) (A) (A)
                 (A) (A) (A) (A) (A) (A) (A) (A) (A) (A) (A) (A)
                 (A) (A) (A) (A) (A) (A) (A) (A) (A) (A) (A) (A)
                 (A) (A) (A) (A) (A) (A) (A) (A) (A) (A) (A) (A)
                 (A) (A) (A) (A) (A) (A) (A) (A) (A) (A) (A) (A)
                 (A) (A) (A) (A) (A) (A) (A) (A) (A) (A) (A) (A)
                 (A) (A) (A) (A) (A) (A) (A) (A) (A) (A) (A) (A)
                 (A) (A) (A) (A) (A) (A) (A) (A) (A) (A) (A) (A)
                 (A) (A) (A) (A) (A) (A) (A) (A) (A) (A) (A) (A)
                 (A) (A) (A) (A) (A) (A) (A) (A) (A) (A) (A) (A)
                 (A) (A) (A) (A) (A) (A) (A) (A) (A) (A) (A) (A)
                 (A) (A) (A) (A) (A) (A) (A) (A) (A) (A) (A) (A)
                 (A) (A) (A) (A) (A) (A) (A) (A) (A) (A) (A) (A)
                 (A) (A) (A) (A) (A) (A) (A) (A) (A) (A) (A) (A)
                 (A) (A) (A) (A) (A) (A) (A)
 The electronic state is 1-A.
 Alpha  occ. eigenvalues --  -89.01376 -89.01375 -19.21138 -19.21137 -14.46377
 Alpha  occ. eigenvalues --  -14.46375 -10.38481 -10.38481 -10.34917 -10.34916
 Alpha  occ. eigenvalues --  -10.31038 -10.31037 -10.30879 -10.30878 -10.30354
 Alpha  occ. eigenvalues --  -10.30354 -10.30229 -10.30228 -10.29632 -10.29632
 Alpha  occ. eigenvalues --  -10.29166 -10.29166 -10.28670 -10.28670 -10.28241
 Alpha  occ. eigenvalues --  -10.28241 -10.27146 -10.27103  -8.07347  -8.07346
 Alpha  occ. eigenvalues --   -6.03834  -6.03834  -6.03432  -6.03431  -6.03234
 Alpha  occ. eigenvalues --   -6.03234  -1.13562  -1.12992  -1.06375  -1.05056
 Alpha  occ. eigenvalues --   -0.99783  -0.99741  -0.93720  -0.93687  -0.89556
 Alpha  occ. eigenvalues --   -0.88570  -0.88193  -0.83575  -0.83421  -0.82786
 Alpha  occ. eigenvalues --   -0.81177  -0.78859  -0.76735  -0.75736  -0.71600
 Alpha  occ. eigenvalues --   -0.70271  -0.68369  -0.67564  -0.67117  -0.66464
 Alpha  occ. eigenvalues --   -0.64128  -0.62193  -0.61354  -0.61073  -0.57681
 Alpha  occ. eigenvalues --   -0.56797  -0.56569  -0.55190  -0.54755  -0.54404
 Alpha  occ. eigenvalues --   -0.53869  -0.53552  -0.52277  -0.50506  -0.50497
 Alpha  occ. eigenvalues --   -0.50206  -0.50194  -0.49662  -0.49117  -0.48911
 Alpha  occ. eigenvalues --   -0.48678  -0.48433  -0.46004  -0.44046  -0.43969
 Alpha  occ. eigenvalues --   -0.43789  -0.43594  -0.43559  -0.42605  -0.42336
 Alpha  occ. eigenvalues --   -0.41909  -0.40467  -0.40410  -0.36040  -0.35756
 Alpha  occ. eigenvalues --   -0.34804  -0.33194  -0.32927  -0.31683  -0.31657
 Alpha  occ. eigenvalues --   -0.28695  -0.27449  -0.23746
 Alpha virt. eigenvalues --   -0.07390  -0.03963  -0.01621   0.02391   0.02414
 Alpha virt. eigenvalues --    0.02717   0.02822   0.03026   0.03989   0.04021
 Alpha virt. eigenvalues --    0.04488   0.04651   0.04879   0.05103   0.05131
 Alpha virt. eigenvalues --    0.05774   0.05780   0.06192   0.06418   0.07074
 Alpha virt. eigenvalues --    0.07091   0.07427   0.07846   0.08354   0.08472
 Alpha virt. eigenvalues --    0.08881   0.08938   0.09308   0.09852   0.10359
 Alpha virt. eigenvalues --    0.10803   0.10838   0.11573   0.11872   0.11918
 Alpha virt. eigenvalues --    0.12279   0.12393   0.12725   0.12871   0.13250
 Alpha virt. eigenvalues --    0.14069   0.14118   0.14236   0.14767   0.15060
 Alpha virt. eigenvalues --    0.15492   0.15679   0.16516   0.16703   0.16860
 Alpha virt. eigenvalues --    0.17183   0.17245   0.17559   0.18076   0.18095
 Alpha virt. eigenvalues --    0.18361   0.18727   0.19347   0.19617   0.19674
 Alpha virt. eigenvalues --    0.20001   0.20102   0.20412   0.20772   0.20966
 Alpha virt. eigenvalues --    0.20968   0.21179   0.21560   0.21693   0.22002
 Alpha virt. eigenvalues --    0.22384   0.22468   0.22651   0.22708   0.22974
 Alpha virt. eigenvalues --    0.23092   0.23375   0.23875   0.24399   0.24452
 Alpha virt. eigenvalues --    0.25117   0.25172   0.25490   0.25868   0.25999
 Alpha virt. eigenvalues --    0.26376   0.26640   0.26766   0.26825   0.27297
 Alpha virt. eigenvalues --    0.27494   0.27557   0.27632   0.27773   0.28523
 Alpha virt. eigenvalues --    0.29067   0.29176   0.29778   0.29792   0.30135
 Alpha virt. eigenvalues --    0.30382   0.30678   0.30729   0.30928   0.31094
 Alpha virt. eigenvalues --    0.31307   0.31813   0.31946   0.32478   0.32810
 Alpha virt. eigenvalues --    0.33386   0.33838   0.33874   0.34104   0.34337
 Alpha virt. eigenvalues --    0.34844   0.35321   0.35385   0.35858   0.36039
 Alpha virt. eigenvalues --    0.36709   0.37369   0.37373   0.37893   0.37933
 Alpha virt. eigenvalues --    0.38345   0.38626   0.38738   0.39668   0.39956
 Alpha virt. eigenvalues --    0.40880   0.41659   0.41895   0.42277   0.43055
 Alpha virt. eigenvalues --    0.43888   0.44137   0.45233   0.45527   0.46037
 Alpha virt. eigenvalues --    0.46605   0.48697   0.48824   0.49390   0.49999
 Alpha virt. eigenvalues --    0.50592   0.51031   0.51898   0.53362   0.54353
 Alpha virt. eigenvalues --    0.54527   0.54917   0.55238   0.56121   0.57797
 Alpha virt. eigenvalues --    0.58313   0.58976   0.60398   0.63351   0.63787
 Alpha virt. eigenvalues --    0.64337   0.64996   0.65908   0.66045   0.67376
 Alpha virt. eigenvalues --    0.67455   0.70107   0.70168   0.70490   0.71236
 Alpha virt. eigenvalues --    0.71312   0.71984   0.72575   0.73665   0.74072
 Alpha virt. eigenvalues --    0.74700   0.74945   0.76041   0.76996   0.77166
 Alpha virt. eigenvalues --    0.78177   0.78708   0.79060   0.79924   0.79946
 Alpha virt. eigenvalues --    0.80499   0.80871   0.81006   0.81281   0.82045
 Alpha virt. eigenvalues --    0.82105   0.83372   0.83852   0.84420   0.85300
 Alpha virt. eigenvalues --    0.85985   0.86038   0.86613   0.87517   0.87572
 Alpha virt. eigenvalues --    0.88497   0.88832   0.90052   0.90535   0.90884
 Alpha virt. eigenvalues --    0.91118   0.92426   0.92563   0.94187   0.94265
 Alpha virt. eigenvalues --    0.94850   0.95199   0.96054   0.96527   0.96688
 Alpha virt. eigenvalues --    0.98162   0.98639   0.98853   0.99564   1.01455
 Alpha virt. eigenvalues --    1.01560   1.02388   1.02557   1.03009   1.03165
 Alpha virt. eigenvalues --    1.05040   1.05730   1.05991   1.07369   1.08148
 Alpha virt. eigenvalues --    1.08430   1.10368   1.10380   1.11406   1.12688
 Alpha virt. eigenvalues --    1.13040   1.14417   1.15119   1.15682   1.16319
 Alpha virt. eigenvalues --    1.16774   1.17835   1.18178   1.18429   1.18798
 Alpha virt. eigenvalues --    1.21114   1.21221   1.21620   1.22048   1.24375
 Alpha virt. eigenvalues --    1.24683   1.25474   1.26107   1.26558   1.26650
 Alpha virt. eigenvalues --    1.27276   1.28630   1.28937   1.30270   1.30348
 Alpha virt. eigenvalues --    1.31647   1.32578   1.33087   1.34155   1.35501
 Alpha virt. eigenvalues --    1.35589   1.35629   1.36273   1.36596   1.37557
 Alpha virt. eigenvalues --    1.37963   1.38576   1.39654   1.39812   1.40517
 Alpha virt. eigenvalues --    1.41172   1.41328   1.41685   1.43585   1.43693
 Alpha virt. eigenvalues --    1.43896   1.44813   1.45824   1.46262   1.47031
 Alpha virt. eigenvalues --    1.48742   1.48946   1.49148   1.49451   1.50286
 Alpha virt. eigenvalues --    1.51536   1.51933   1.53970   1.54548   1.54888
 Alpha virt. eigenvalues --    1.56262   1.57744   1.59831   1.60063   1.61984
 Alpha virt. eigenvalues --    1.65720   1.66991   1.69168   1.70517   1.70568
 Alpha virt. eigenvalues --    1.71678   1.73872   1.74543   1.76406   1.77985
 Alpha virt. eigenvalues --    1.78849   1.80003   1.80247   1.82844   1.84147
 Alpha virt. eigenvalues --    1.85092   1.85298   1.86843   1.88096   1.88796
 Alpha virt. eigenvalues --    1.90040   1.90298   1.90306   1.92628   1.93058
 Alpha virt. eigenvalues --    1.93689   1.93722   1.94963   1.95694   1.96409
 Alpha virt. eigenvalues --    1.97882   1.99002   2.00734   2.01589   2.01632
 Alpha virt. eigenvalues --    2.02796   2.02872   2.03979   2.04470   2.05311
 Alpha virt. eigenvalues --    2.05535   2.06522   2.08020   2.08313   2.10428
 Alpha virt. eigenvalues --    2.11161   2.11866   2.12309   2.12957   2.14236
 Alpha virt. eigenvalues --    2.15180   2.18328   2.19203   2.19476   2.20169
 Alpha virt. eigenvalues --    2.21850   2.22029   2.23646   2.23873   2.25855
 Alpha virt. eigenvalues --    2.27435   2.27496   2.28636   2.30030   2.33446
 Alpha virt. eigenvalues --    2.33534   2.33760   2.34556   2.35706   2.36348
 Alpha virt. eigenvalues --    2.37087   2.38175   2.39030   2.39629   2.40229
 Alpha virt. eigenvalues --    2.41319   2.41400   2.41855   2.45209   2.45478
 Alpha virt. eigenvalues --    2.47286   2.47554   2.47639   2.48689   2.49646
 Alpha virt. eigenvalues --    2.50825   2.52825   2.55200   2.55262   2.55616
 Alpha virt. eigenvalues --    2.56855   2.56898   2.58256   2.59841   2.60924
 Alpha virt. eigenvalues --    2.61801   2.62250   2.62705   2.62850   2.64070
 Alpha virt. eigenvalues --    2.65415   2.65648   2.65653   2.66296   2.66707
 Alpha virt. eigenvalues --    2.68399   2.69539   2.71745   2.72091   2.72849
 Alpha virt. eigenvalues --    2.73305   2.74876   2.74895   2.76344   2.78683
 Alpha virt. eigenvalues --    2.79597   2.79619   2.80249   2.80903   2.81921
 Alpha virt. eigenvalues --    2.85400   2.86703   2.89360   2.91912   2.92537
 Alpha virt. eigenvalues --    2.93652   2.94763   2.96292   2.99312   2.99986
 Alpha virt. eigenvalues --    3.04192   3.05141   3.07726   3.10702   3.12770
 Alpha virt. eigenvalues --    3.12928   3.14541   3.16806   3.20864   3.26830
 Alpha virt. eigenvalues --    3.27996   3.31440   3.33966   3.35007   3.35977
 Alpha virt. eigenvalues --    3.36419   3.37560   3.43652   3.48447   3.48818
 Alpha virt. eigenvalues --    3.50245   3.51172   3.53460   3.59861   3.59942
 Alpha virt. eigenvalues --    3.63317   3.64605   3.86833   3.86978   4.04344
 Alpha virt. eigenvalues --    4.04565   4.30129   4.34663   4.35071   4.35627
 Alpha virt. eigenvalues --    4.37905   4.38299   4.39074   4.42147   4.43464
 Alpha virt. eigenvalues --    4.44677   4.45986   4.47073   4.50269   4.51450
 Alpha virt. eigenvalues --    4.51507   4.56776   4.58950   4.62110   4.62232
 Alpha virt. eigenvalues --    4.66136   4.74139   4.82128   4.94238   4.94348
 Alpha virt. eigenvalues --    5.04727   5.13427
          Condensed to atoms (all electrons):
              1          2          3          4          5          6
     1  N    7.448775   0.234141   0.084132  -0.045488   0.000278  -0.106198
     2  C    0.234141   9.038147   1.557562  -0.025739  -4.053795  -1.112412
     3  C    0.084132   1.557562  11.304794   2.455155  -4.826871  -3.285139
     4  C   -0.045488  -0.025739   2.455155  16.347205   0.684210  -4.822870
     5  C    0.000278  -4.053795  -4.826871   0.684210  16.350168   2.454687
     6  C   -0.106198  -1.112412  -3.285139  -4.822870   2.454687  11.301054
     7  C   -0.151057  -0.344053  -1.114059  -4.052890  -0.024390   1.556547
     8  N   -0.003083  -0.151094  -0.106430   0.000721  -0.045230   0.084108
     9  O   -0.105022   0.264092  -0.140823  -0.066683  -0.049456   0.163278
    10  O   -0.003347   0.036375   0.163337  -0.049399  -0.066802  -0.140838
    11  H    0.000640   0.007169   0.013796   0.141056   0.035357  -0.082141
    12  H    0.312822  -0.078327  -0.082153   0.035397   0.141016   0.013798
    13  C   -0.071198   0.112799   0.108907  -0.597168  -0.286418  -0.149345
    14  C   -0.038909   0.166472   0.003791   0.270616  -0.419460  -0.080266
    15  C   -0.090848   0.488836   1.199542   0.780940  -0.830895  -0.814282
    16  C   -0.073295   0.152407   1.083529  -0.533794  -1.436864  -0.573560
    17  H    0.001027   0.001362  -0.021950  -0.031897  -0.024700   0.004896
    18  C    0.020319  -0.074740  -0.794554  -0.163867  -0.105363  -0.031288
    19  H    0.000018   0.000092  -0.000135  -0.004035  -0.000696  -0.000117
    20  C    0.017338  -0.031565  -0.133546   0.036951  -0.052387  -0.020747
    21  H   -0.000016   0.000007  -0.001312   0.002230  -0.000084   0.000019
    22  C    0.082640   0.132500  -0.218548  -0.324445  -0.247055  -0.066938
    23  H    0.002515   0.005771  -0.008186   0.003912   0.002169   0.001380
    24  C   -0.031882   0.033206   0.118823  -0.172103  -0.028758  -0.009638
    25  H   -0.000052   0.000011  -0.000943   0.000112  -0.000083   0.000000
    26  S    0.013906  -0.003548  -0.012633   0.039548   0.016407   0.013141
    27  C   -0.002305  -0.022877  -0.080732  -0.420830   0.270270   0.004070
    28  C   -0.009985  -0.094158  -0.149528  -0.287077  -0.597550   0.108976
    29  C    0.003333  -0.046860  -0.020772  -0.052401   0.036673  -0.133696
    30  H    0.000000  -0.000092   0.000019  -0.000084   0.002232  -0.001306
    31  C    0.022306  -0.156818  -0.031342  -0.105715  -0.164620  -0.795789
    32  H   -0.000006  -0.000909  -0.000117  -0.000697  -0.004036  -0.000142
    33  C   -0.000580  -0.359209  -0.573664  -1.436196  -0.533527   1.082832
    34  H    0.001889   0.033573   0.004901  -0.024697  -0.031951  -0.022031
    35  C   -0.059747  -0.113623  -0.815052  -0.831159   0.782166   1.200712
    36  C   -0.001160  -0.006946  -0.009653  -0.028873  -0.172134   0.118887
    37  H    0.000000  -0.000002   0.000000  -0.000084   0.000112  -0.000944
    38  C    0.000958  -0.018102  -0.066723  -0.246220  -0.324167  -0.219790
    39  H    0.000010   0.001628   0.001386   0.002272   0.003923  -0.008256
    40  S    0.000191   0.010432   0.013156   0.016556   0.039598  -0.012637
              7          8          9         10         11         12
     1  N   -0.151057  -0.003083  -0.105022  -0.003347   0.000640   0.312822
     2  C   -0.344053  -0.151094   0.264092   0.036375   0.007169  -0.078327
     3  C   -1.114059  -0.106430  -0.140823   0.163337   0.013796  -0.082153
     4  C   -4.052890   0.000721  -0.066683  -0.049399   0.141056   0.035397
     5  C   -0.024390  -0.045230  -0.049456  -0.066802   0.035357   0.141016
     6  C    1.556547   0.084108   0.163278  -0.140838  -0.082141   0.013798
     7  C    9.037834   0.233819   0.036394   0.264093  -0.078429   0.007164
     8  N    0.233819   7.448731  -0.003347  -0.105022   0.312879   0.000640
     9  O    0.036394  -0.003347   8.475149  -0.000142  -0.000013   0.002702
    10  O    0.264093  -0.105022  -0.000142   8.475043   0.002708  -0.000013
    11  H   -0.078429   0.312879  -0.000013   0.002708   0.383894   0.000000
    12  H    0.007164   0.000640   0.002702  -0.000013   0.000000   0.383975
    13  C   -0.094075  -0.009977  -0.002862   0.003648   0.000017  -0.014269
    14  C   -0.022887  -0.002315  -0.008783  -0.009480   0.000132  -0.026017
    15  C   -0.112824  -0.059733  -0.004123   0.110197   0.001014  -0.030713
    16  C   -0.359419  -0.000594  -0.003553  -0.007209   0.002026  -0.022584
    17  H    0.033514   0.001884   0.000002  -0.005227  -0.000003   0.000005
    18  C   -0.157027   0.022301   0.001642  -0.086452   0.000145   0.000794
    19  H   -0.000907  -0.000006   0.000000   0.000196   0.000000   0.000000
    20  C   -0.046796   0.003338   0.000158  -0.005738   0.000017  -0.000404
    21  H   -0.000092   0.000000   0.000000   0.000004   0.000000   0.000000
    22  C   -0.018276   0.000936   0.002642  -0.001145   0.000018   0.033028
    23  H    0.001619   0.000010   0.000170   0.000000   0.000000   0.002263
    24  C   -0.006949  -0.001160  -0.000741   0.000383   0.000000  -0.002897
    25  H   -0.000002   0.000000   0.000000   0.000000   0.000000   0.000000
    26  S    0.010415   0.000189   0.000132  -0.000206   0.000000   0.001867
    27  C    0.167025  -0.038879  -0.009515  -0.008791  -0.026009   0.000132
    28  C    0.113146  -0.071244   0.003661  -0.002866  -0.014248   0.000017
    29  C   -0.031544   0.017336  -0.005743   0.000158  -0.000403   0.000017
    30  H    0.000007  -0.000016   0.000004   0.000000   0.000000   0.000000
    31  C   -0.074721   0.020333  -0.086563   0.001642   0.000795   0.000145
    32  H    0.000092   0.000018   0.000196   0.000000   0.000000   0.000000
    33  C    0.152410  -0.073192  -0.007286  -0.003552  -0.022544   0.002027
    34  H    0.001356   0.001025  -0.005236   0.000002   0.000005  -0.000003
    35  C    0.489059  -0.090898   0.110290  -0.004133  -0.030681   0.001014
    36  C    0.033243  -0.031874   0.000383  -0.000741  -0.002886   0.000000
    37  H    0.000012  -0.000052   0.000000   0.000000   0.000000   0.000000
    38  C    0.131914   0.082641  -0.001156   0.002649   0.032967   0.000018
    39  H    0.005695   0.002598   0.000000   0.000170   0.002236   0.000000
    40  S   -0.003626   0.013907  -0.000206   0.000134   0.001854   0.000000
             13         14         15         16         17         18
     1  N   -0.071198  -0.038909  -0.090848  -0.073295   0.001027   0.020319
     2  C    0.112799   0.166472   0.488836   0.152407   0.001362  -0.074740
     3  C    0.108907   0.003791   1.199542   1.083529  -0.021950  -0.794554
     4  C   -0.597168   0.270616   0.780940  -0.533794  -0.031897  -0.163867
     5  C   -0.286418  -0.419460  -0.830895  -1.436864  -0.024700  -0.105363
     6  C   -0.149345  -0.080266  -0.814282  -0.573560   0.004896  -0.031288
     7  C   -0.094075  -0.022887  -0.112824  -0.359419   0.033514  -0.157027
     8  N   -0.009977  -0.002315  -0.059733  -0.000594   0.001884   0.022301
     9  O   -0.002862  -0.008783  -0.004123  -0.003553   0.000002   0.001642
    10  O    0.003648  -0.009480   0.110197  -0.007209  -0.005227  -0.086452
    11  H    0.000017   0.000132   0.001014   0.002026  -0.000003   0.000145
    12  H   -0.014269  -0.026017  -0.030713  -0.022584   0.000005   0.000794
    13  C    9.231721   0.120388  -1.307710   1.800768  -0.000179  -0.770614
    14  C    0.120388   7.855588   0.987353  -0.554287   0.034429   0.160797
    15  C   -1.307710   0.987353   8.253816  -0.329626  -0.124816  -1.398017
    16  C    1.800768  -0.554287  -0.329626  10.863609   0.330811  -2.025139
    17  H   -0.000179   0.034429  -0.124816   0.330811   0.510792   0.099842
    18  C   -0.770614   0.160797  -1.398017  -2.025139   0.099842   9.163759
    19  H    0.019669   0.010642   0.005345  -0.059986  -0.004586   0.364882
    20  C   -1.503630  -0.051834   0.397116  -2.295965   0.011133   1.454690
    21  H    0.043784   0.060272   0.033177   0.033941  -0.000140  -0.018946
    22  C    0.001539  -1.026689  -0.204376  -0.393932   0.005999   0.555942
    23  H    0.005762  -0.051825  -0.014260  -0.010501  -0.000003   0.004015
    24  C   -0.504055  -1.321594  -0.956040   0.632594   0.001556   0.019921
    25  H    0.039094   0.023826   0.007203  -0.000303   0.000000   0.002017
    26  S   -0.123004   0.305924   0.150054  -0.030746   0.000171  -0.070548
    27  C   -0.001412  -0.001382  -0.024307  -0.003327  -0.000154   0.002124
    28  C   -0.000030  -0.001411  -0.002354  -0.002731  -0.000026   0.000059
    29  C    0.000024   0.000131  -0.001477  -0.000723   0.000002  -0.000072
    30  H    0.000000   0.000000   0.000000   0.000000   0.000000   0.000000
    31  C    0.000057   0.002123  -0.007475   0.003014   0.000004   0.000688
    32  H    0.000000   0.000000  -0.000004   0.000001   0.000000   0.000000
    33  C   -0.002730  -0.003294  -0.089240  -0.023578  -0.000075   0.003020
    34  H   -0.000026  -0.000154  -0.001110  -0.000076   0.000000   0.000004
    35  C   -0.002344  -0.024263  -0.026668  -0.089279  -0.001110  -0.007458
    36  C   -0.000015  -0.000067  -0.000137   0.000432  -0.000001   0.000084
    37  H    0.000000   0.000000   0.000000   0.000000   0.000000   0.000000
    38  C    0.000091  -0.000510  -0.000385  -0.009479   0.000093  -0.002537
    39  H    0.000000   0.000004   0.000019  -0.000014   0.000000  -0.000005
    40  S    0.000005   0.000116   0.000497   0.000000   0.000005  -0.000098
             19         20         21         22         23         24
     1  N    0.000018   0.017338  -0.000016   0.082640   0.002515  -0.031882
     2  C    0.000092  -0.031565   0.000007   0.132500   0.005771   0.033206
     3  C   -0.000135  -0.133546  -0.001312  -0.218548  -0.008186   0.118823
     4  C   -0.004035   0.036951   0.002230  -0.324445   0.003912  -0.172103
     5  C   -0.000696  -0.052387  -0.000084  -0.247055   0.002169  -0.028758
     6  C   -0.000117  -0.020747   0.000019  -0.066938   0.001380  -0.009638
     7  C   -0.000907  -0.046796  -0.000092  -0.018276   0.001619  -0.006949
     8  N   -0.000006   0.003338   0.000000   0.000936   0.000010  -0.001160
     9  O    0.000000   0.000158   0.000000   0.002642   0.000170  -0.000741
    10  O    0.000196  -0.005738   0.000004  -0.001145   0.000000   0.000383
    11  H    0.000000   0.000017   0.000000   0.000018   0.000000   0.000000
    12  H    0.000000  -0.000404   0.000000   0.033028   0.002263  -0.002897
    13  C    0.019669  -1.503630   0.043784   0.001539   0.005762  -0.504055
    14  C    0.010642  -0.051834   0.060272  -1.026689  -0.051825  -1.321594
    15  C    0.005345   0.397116   0.033177  -0.204376  -0.014260  -0.956040
    16  C   -0.059986  -2.295965   0.033941  -0.393932  -0.010501   0.632594
    17  H   -0.004586   0.011133  -0.000140   0.005999  -0.000003   0.001556
    18  C    0.364882   1.454690  -0.018946   0.555942   0.004015   0.019921
    19  H    0.540346  -0.009318  -0.004056   0.002415   0.000000  -0.006313
    20  C   -0.009318   8.173005   0.264586   0.015646   0.000579   0.046873
    21  H   -0.004056   0.264586   0.550770   0.003291   0.000001  -0.114258
    22  C    0.002415   0.015646   0.003291   8.203913   0.391161  -0.973702
    23  H    0.000000   0.000579   0.000001   0.391161   0.489198   0.010752
    24  C   -0.006313   0.046873  -0.114258  -0.973702   0.010752   8.617578
    25  H   -0.000002  -0.020669   0.001742   0.021477  -0.000043   0.290744
    26  S    0.000157  -0.000659   0.001538   0.012940  -0.018666   0.054674
    27  C    0.000000   0.000130   0.000000  -0.000516   0.000004  -0.000067
    28  C    0.000000   0.000024   0.000000   0.000090   0.000000  -0.000015
    29  C    0.000000  -0.000013   0.000000  -0.000391   0.000000   0.000007
    30  H    0.000000   0.000000   0.000000   0.000000   0.000000   0.000000
    31  C    0.000000  -0.000072   0.000000  -0.002539  -0.000005   0.000084
    32  H    0.000000   0.000000   0.000000   0.000000   0.000000   0.000000
    33  C    0.000001  -0.000722   0.000000  -0.009492  -0.000014   0.000432
    34  H    0.000000   0.000002   0.000000   0.000093   0.000000  -0.000001
    35  C   -0.000004  -0.001480   0.000000  -0.000414   0.000018  -0.000135
    36  C    0.000000   0.000007   0.000000   0.000040   0.000000  -0.000002
    37  H    0.000000   0.000000   0.000000   0.000000   0.000000   0.000000
    38  C    0.000000  -0.000391   0.000000   0.000574  -0.000001   0.000040
    39  H    0.000000   0.000000   0.000000  -0.000001   0.000000   0.000000
    40  S    0.000000  -0.000012   0.000000   0.000070   0.000000   0.000001
             25         26         27         28         29         30
     1  N   -0.000052   0.013906  -0.002305  -0.009985   0.003333   0.000000
     2  C    0.000011  -0.003548  -0.022877  -0.094158  -0.046860  -0.000092
     3  C   -0.000943  -0.012633  -0.080732  -0.149528  -0.020772   0.000019
     4  C    0.000112   0.039548  -0.420830  -0.287077  -0.052401  -0.000084
     5  C   -0.000083   0.016407   0.270270  -0.597550   0.036673   0.002232
     6  C    0.000000   0.013141   0.004070   0.108976  -0.133696  -0.001306
     7  C   -0.000002   0.010415   0.167025   0.113146  -0.031544   0.000007
     8  N    0.000000   0.000189  -0.038879  -0.071244   0.017336  -0.000016
     9  O    0.000000   0.000132  -0.009515   0.003661  -0.005743   0.000004
    10  O    0.000000  -0.000206  -0.008791  -0.002866   0.000158   0.000000
    11  H    0.000000   0.000000  -0.026009  -0.014248  -0.000403   0.000000
    12  H    0.000000   0.001867   0.000132   0.000017   0.000017   0.000000
    13  C    0.039094  -0.123004  -0.001412  -0.000030   0.000024   0.000000
    14  C    0.023826   0.305924  -0.001382  -0.001411   0.000131   0.000000
    15  C    0.007203   0.150054  -0.024307  -0.002354  -0.001477   0.000000
    16  C   -0.000303  -0.030746  -0.003327  -0.002731  -0.000723   0.000000
    17  H    0.000000   0.000171  -0.000154  -0.000026   0.000002   0.000000
    18  C    0.002017  -0.070548   0.002124   0.000059  -0.000072   0.000000
    19  H   -0.000002   0.000157   0.000000   0.000000   0.000000   0.000000
    20  C   -0.020669  -0.000659   0.000130   0.000024  -0.000013   0.000000
    21  H    0.001742   0.001538   0.000000   0.000000   0.000000   0.000000
    22  C    0.021477   0.012940  -0.000516   0.000090  -0.000391   0.000000
    23  H   -0.000043  -0.018666   0.000004   0.000000   0.000000   0.000000
    24  C    0.290744   0.054674  -0.000067  -0.000015   0.000007   0.000000
    25  H    0.492907  -0.033518   0.000000   0.000000   0.000000   0.000000
    26  S   -0.033518  15.569503   0.000116   0.000005  -0.000012   0.000000
    27  C    0.000000   0.000116   7.856494   0.119840  -0.052025   0.060279
    28  C    0.000000   0.000005   0.119840   9.232550  -1.503309   0.043799
    29  C    0.000000  -0.000012  -0.052025  -1.503309   8.172424   0.264534
    30  H    0.000000   0.000000   0.060279   0.043799   0.264534   0.550773
    31  C    0.000000  -0.000098   0.161463  -0.770626   1.455428  -0.018994
    32  H    0.000000   0.000000   0.010652   0.019657  -0.009323  -0.004056
    33  C    0.000000   0.000000  -0.554192   1.801104  -2.295670   0.033985
    34  H    0.000000   0.000005   0.034469  -0.000178   0.011138  -0.000140
    35  C    0.000000   0.000495   0.987760  -1.308235   0.396167   0.033194
    36  C    0.000000   0.000001  -1.321526  -0.503655   0.047414  -0.114245
    37  H    0.000000   0.000000   0.023836   0.039113  -0.020663   0.001742
    38  C    0.000000   0.000070  -1.026679   0.001648   0.015959   0.003284
    39  H    0.000000   0.000000  -0.051786   0.005769   0.000570   0.000001
    40  S    0.000000   0.000003   0.306013  -0.123121  -0.000821   0.001538
             31         32         33         34         35         36
     1  N    0.022306  -0.000006  -0.000580   0.001889  -0.059747  -0.001160
     2  C   -0.156818  -0.000909  -0.359209   0.033573  -0.113623  -0.006946
     3  C   -0.031342  -0.000117  -0.573664   0.004901  -0.815052  -0.009653
     4  C   -0.105715  -0.000697  -1.436196  -0.024697  -0.831159  -0.028873
     5  C   -0.164620  -0.004036  -0.533527  -0.031951   0.782166  -0.172134
     6  C   -0.795789  -0.000142   1.082832  -0.022031   1.200712   0.118887
     7  C   -0.074721   0.000092   0.152410   0.001356   0.489059   0.033243
     8  N    0.020333   0.000018  -0.073192   0.001025  -0.090898  -0.031874
     9  O   -0.086563   0.000196  -0.007286  -0.005236   0.110290   0.000383
    10  O    0.001642   0.000000  -0.003552   0.000002  -0.004133  -0.000741
    11  H    0.000795   0.000000  -0.022544   0.000005  -0.030681  -0.002886
    12  H    0.000145   0.000000   0.002027  -0.000003   0.001014   0.000000
    13  C    0.000057   0.000000  -0.002730  -0.000026  -0.002344  -0.000015
    14  C    0.002123   0.000000  -0.003294  -0.000154  -0.024263  -0.000067
    15  C   -0.007475  -0.000004  -0.089240  -0.001110  -0.026668  -0.000137
    16  C    0.003014   0.000001  -0.023578  -0.000076  -0.089279   0.000432
    17  H    0.000004   0.000000  -0.000075   0.000000  -0.001110  -0.000001
    18  C    0.000688   0.000000   0.003020   0.000004  -0.007458   0.000084
    19  H    0.000000   0.000000   0.000001   0.000000  -0.000004   0.000000
    20  C   -0.000072   0.000000  -0.000722   0.000002  -0.001480   0.000007
    21  H    0.000000   0.000000   0.000000   0.000000   0.000000   0.000000
    22  C   -0.002539   0.000000  -0.009492   0.000093  -0.000414   0.000040
    23  H   -0.000005   0.000000  -0.000014   0.000000   0.000018   0.000000
    24  C    0.000084   0.000000   0.000432  -0.000001  -0.000135  -0.000002
    25  H    0.000000   0.000000   0.000000   0.000000   0.000000   0.000000
    26  S   -0.000098   0.000000   0.000000   0.000005   0.000495   0.000001
    27  C    0.161463   0.010652  -0.554192   0.034469   0.987760  -1.321526
    28  C   -0.770626   0.019657   1.801104  -0.000178  -1.308235  -0.503655
    29  C    1.455428  -0.009323  -2.295670   0.011138   0.396167   0.047414
    30  H   -0.018994  -0.004056   0.033985  -0.000140   0.033194  -0.114245
    31  C    9.166521   0.364928  -2.026302   0.099978  -1.399365   0.020054
    32  H    0.364928   0.540347  -0.060011  -0.004587   0.005344  -0.006317
    33  C   -2.026302  -0.060011  10.862954   0.330778  -0.328287   0.632498
    34  H    0.099978  -0.004587   0.330778   0.510810  -0.124889   0.001556
    35  C   -1.399365   0.005344  -0.328287  -0.124889   8.254332  -0.955851
    36  C    0.020054  -0.006317   0.632498   0.001556  -0.955851   8.616610
    37  H    0.002021  -0.000002  -0.000303   0.000000   0.007205   0.290699
    38  C    0.556484   0.002417  -0.394496   0.006001  -0.204882  -0.973942
    39  H    0.004018   0.000000  -0.010508  -0.000003  -0.014323   0.010812
    40  S   -0.070558   0.000157  -0.030754   0.000171   0.150042   0.054837
             37         38         39         40
     1  N    0.000000   0.000958   0.000010   0.000191
     2  C   -0.000002  -0.018102   0.001628   0.010432
     3  C    0.000000  -0.066723   0.001386   0.013156
     4  C   -0.000084  -0.246220   0.002272   0.016556
     5  C    0.000112  -0.324167   0.003923   0.039598
     6  C   -0.000944  -0.219790  -0.008256  -0.012637
     7  C    0.000012   0.131914   0.005695  -0.003626
     8  N   -0.000052   0.082641   0.002598   0.013907
     9  O    0.000000  -0.001156   0.000000  -0.000206
    10  O    0.000000   0.002649   0.000170   0.000134
    11  H    0.000000   0.032967   0.002236   0.001854
    12  H    0.000000   0.000018   0.000000   0.000000
    13  C    0.000000   0.000091   0.000000   0.000005
    14  C    0.000000  -0.000510   0.000004   0.000116
    15  C    0.000000  -0.000385   0.000019   0.000497
    16  C    0.000000  -0.009479  -0.000014   0.000000
    17  H    0.000000   0.000093   0.000000   0.000005
    18  C    0.000000  -0.002537  -0.000005  -0.000098
    19  H    0.000000   0.000000   0.000000   0.000000
    20  C    0.000000  -0.000391   0.000000  -0.000012
    21  H    0.000000   0.000000   0.000000   0.000000
    22  C    0.000000   0.000574  -0.000001   0.000070
    23  H    0.000000  -0.000001   0.000000   0.000000
    24  C    0.000000   0.000040   0.000000   0.000001
    25  H    0.000000   0.000000   0.000000   0.000000
    26  S    0.000000   0.000070   0.000000   0.000003
    27  C    0.023836  -1.026679  -0.051786   0.306013
    28  C    0.039113   0.001648   0.005769  -0.123121
    29  C   -0.020663   0.015959   0.000570  -0.000821
    30  H    0.001742   0.003284   0.000001   0.001538
    31  C    0.002021   0.556484   0.004018  -0.070558
    32  H   -0.000002   0.002417   0.000000   0.000157
    33  C   -0.000303  -0.394496  -0.010508  -0.030754
    34  H    0.000000   0.006001  -0.000003   0.000171
    35  C    0.007205  -0.204882  -0.014323   0.150042
    36  C    0.290699  -0.973942   0.010812   0.054837
    37  H    0.492912   0.021476  -0.000043  -0.033512
    38  C    0.021476   8.204481   0.391147   0.012946
    39  H   -0.000043   0.391147   0.489087  -0.018705
    40  S   -0.033512   0.012946  -0.018705  15.569394
 Mulliken atomic charges:
              1
     1  N   -0.453061
     2  C    0.418284
     3  C    0.382034
     4  C   -0.492470
     5  C   -0.491976
     6  C    0.381983
     7  C    0.418667
     8  N   -0.453267
     9  O   -0.559640
    10  O   -0.559634
    11  H    0.318633
    12  H    0.318539
    13  C   -0.047213
    14  C   -0.357178
    15  C    0.016310
    16  C   -0.062570
    17  H    0.177339
    18  C   -0.170320
    19  H    0.146397
    20  C   -0.245647
    21  H    0.143543
    22  C    0.021504
    23  H    0.182205
    24  C    0.302642
    25  H    0.176480
    26  S    0.102378
    27  C   -0.357369
    28  C   -0.047113
    29  C   -0.245397
    30  H    0.143542
    31  C   -0.170486
    32  H    0.146398
    33  C   -0.062622
    34  H    0.177329
    35  C    0.016484
    36  C    0.302470
    37  H    0.176478
    38  C    0.021602
    39  H    0.182298
    40  S    0.102426
 Sum of Mulliken atomic charges =   0.00000
 Mulliken charges with hydrogens summed into heavy atoms:
              1
     1  N   -0.134522
     2  C    0.418284
     3  C    0.382034
     4  C   -0.492470
     5  C   -0.491976
     6  C    0.381983
     7  C    0.418667
     8  N   -0.134635
     9  O   -0.559640
    10  O   -0.559634
    13  C   -0.047213
    14  C   -0.357178
    15  C    0.016310
    16  C    0.114769
    18  C   -0.023922
    20  C   -0.102104
    22  C    0.203709
    24  C    0.479123
    26  S    0.102378
    27  C   -0.357369
    28  C   -0.047113
    29  C   -0.101855
    31  C   -0.024088
    33  C    0.114706
    35  C    0.016484
    36  C    0.478947
    38  C    0.203900
    40  S    0.102426
 Sum of Mulliken charges with hydrogens summed into heavy atoms =   0.00000
 Electronic spatial extent (au):  <R**2>=          16018.3132
 Charge=              0.0000 electrons
 Dipole moment (field-independent basis, Debye):
    X=              0.0006    Y=              0.0001    Z=              0.0419  Tot=              0.0419
 Quadrupole moment (field-independent basis, Debye-Ang):
   XX=           -120.8515   YY=           -184.8646   ZZ=           -178.4061
   XY=             -2.3303   XZ=              0.0019   YZ=              0.0004
 Traceless Quadrupole moment (field-independent basis, Debye-Ang):
   XX=             40.5225   YY=            -23.4905   ZZ=            -17.0320
   XY=             -2.3303   XZ=              0.0019   YZ=              0.0004
 Octapole moment (field-independent basis, Debye-Ang**2):
  XXX=              0.0293  YYY=              0.0082  ZZZ=              2.6455  XYY=             -0.0079
  XXY=              0.0035  XXZ=             14.4080  XZZ=              0.0042  YZZ=             -0.0070
  YYZ=             -2.2223  XYZ=             29.4822
 Hexadecapole moment (field-independent basis, Debye-Ang**3):
 XXXX=         -15801.5273 YYYY=          -3040.2265 ZZZZ=           -742.9123 XXXY=           -428.6657
 XXXZ=              0.2066 YYYX=            -22.5883 YYYZ=             -0.1791 ZZZX=              0.2226
 ZZZY=             -0.1458 XXYY=          -3402.4842 XXZZ=          -3444.3120 YYZZ=           -580.4006
 XXYZ=              0.0218 YYXZ=              0.0596 ZZXY=             34.9022
 N-N= 2.591810641984D+03 E-N=-9.640686873709D+03  KE= 1.888378822896D+03
 1|1|UNPC-DESKTOP-1G0HI64|SP|RCAM-B3LYP TD-FC|6-31+G(d,p)|C22H12N2O2S2|
 USER|31-Jul-2023|0||# td=(nstates=10) cam-b3lyp/6-31+g(d,p) geom=conne
 ctivity||Title Card Required||0,1|N,0,1.565251,1.428878,-0.3034|C,0,0.
 195596,1.802387,-0.387958|C,0,1.758472,0.048812,-0.335951|C,0,0.493009
 ,-0.520257,-0.395231|C,0,-0.492957,0.520128,-0.395108|C,0,-1.758426,-0
 .048946,-0.33576|C,0,-0.195514,-1.802517,-0.388249|N,0,-1.565215,-1.42
 9043,-0.303563|O,0,-0.184369,2.967364,-0.467186|O,0,0.184427,-2.967446
 ,-0.468091|H,0,-2.289944,-2.106714,-0.492187|H,0,2.290093,2.1067,-0.49
 1033|C,0,5.549798,-0.554594,0.052169|C,0,4.260413,0.112775,0.178876|C,
 0,3.074002,-0.566552,-0.311238|C,0,3.2143,-1.858577,-0.798617|H,0,2.33
 0087,-2.3966,-1.124354|C,0,4.479051,-2.501399,-0.896079|H,0,4.52001,-3
 .507528,-1.301222|C,0,5.630995,-1.865661,-0.507212|H,0,6.598331,-2.350
 582,-0.599447|C,0,4.389482,1.338542,0.821129|H,0,3.621348,2.025236,1.1
 42404|C,0,6.591735,0.201915,0.571879|H,0,7.642152,-0.051485,0.607096|S
 ,0,6.025598,1.677305,1.229582|C,0,-4.260452,-0.112832,0.179072|C,0,-5.
 549757,0.554713,0.052403|C,0,-5.63079,1.865892,-0.506719|H,0,-6.598068
 ,2.350942,-0.59889|C,0,-4.47875,2.501634,-0.895292|H,0,-4.519577,3.507
 874,-1.30017|C,0,-3.214083,1.858659,-0.797897|H,0,-2.329794,2.39669,-1
 .123421|C,0,-3.073934,0.566464,-0.310888|C,0,-6.591831,-0.201773,0.571
 875|H,0,-7.642221,0.05175,0.607024|C,0,-4.389722,-1.33863,0.821239|H,0
 ,-3.621715,-2.025406,1.142617|S,0,-6.025927,-1.677315,1.22941||Version
 =IA32W-G09RevB.01|State=1-A|HF=-1901.3584798|RMSD=3.278e-009|PG=C01 [X
 (C22H12N2O2S2)]||@


 It is also a good rule not to put too much confidence in
 experimental results until they have been confirmed by
 Theory.
                             -- Sir Arthur Eddington
 Job cpu time:  0 days  1 hours 17 minutes 17.0 seconds.
 File lengths (MBytes):  RWF=    790 Int=      0 D2E=      0 Chk=    126 Scr=      1
 Normal termination of Gaussian 09 at Mon Jul 31 16:33:44 2023.
