 Entering Link 1 = C:\G09W\l1.exe PID=      1352.
  
 Copyright (c) 1988,1990,1992,1993,1995,1998,2003,2009,2010,
            Gaussian, Inc.  All Rights Reserved.
  
 This is part of the Gaussian(R) 09 program.  It is based on
 the Gaussian(R) 03 system (copyright 2003, Gaussian, Inc.),
 the Gaussian(R) 98 system (copyright 1998, Gaussian, Inc.),
 the Gaussian(R) 94 system (copyright 1995, Gaussian, Inc.),
 the Gaussian 92(TM) system (copyright 1992, Gaussian, Inc.),
 the Gaussian 90(TM) system (copyright 1990, Gaussian, Inc.),
 the Gaussian 88(TM) system (copyright 1988, Gaussian, Inc.),
 the Gaussian 86(TM) system (copyright 1986, Carnegie Mellon
 University), and the Gaussian 82(TM) system (copyright 1983,
 Carnegie Mellon University). Gaussian is a federally registered
 trademark of Gaussian, Inc.
  
 This software contains proprietary and confidential information,
 including trade secrets, belonging to Gaussian, Inc.
  
 This software is provided under written license and may be
 used, copied, transmitted, or stored only in accord with that
 written license.
  
 The following legend is applicable only to US Government
 contracts under FAR:
  
                    RESTRICTED RIGHTS LEGEND
  
 Use, reproduction and disclosure by the US Government is
 subject to restrictions as set forth in subparagraphs (a)
 and (c) of the Commercial Computer Software - Restricted
 Rights clause in FAR 52.227-19.
  
 Gaussian, Inc.
 340 Quinnipiac St., Bldg. 40, Wallingford CT 06492
  
  
 ---------------------------------------------------------------
 Warning -- This program may not be used in any manner that
 competes with the business of Gaussian, Inc. or will provide
 assistance to any competitor of Gaussian, Inc.  The licensee
 of this program is prohibited from giving any competitor of
 Gaussian, Inc. access to this program.  By using this program,
 the user acknowledges that Gaussian, Inc. is engaged in the
 business of creating and licensing software in the field of
 computational chemistry and represents and warrants to the
 licensee that it is not a competitor of Gaussian, Inc. and that
 it will not use this program in any manner prohibited above.
 ---------------------------------------------------------------
  

 Cite this work as:
 Gaussian 09, Revision B.01,
 M. J. Frisch, G. W. Trucks, H. B. Schlegel, G. E. Scuseria, 
 M. A. Robb, J. R. Cheeseman, G. Scalmani, V. Barone, B. Mennucci, 
 G. A. Petersson, H. Nakatsuji, M. Caricato, X. Li, H. P. Hratchian, 
 A. F. Izmaylov, J. Bloino, G. Zheng, J. L. Sonnenberg, M. Hada, 
 M. Ehara, K. Toyota, R. Fukuda, J. Hasegawa, M. Ishida, T. Nakajima, 
 Y. Honda, O. Kitao, H. Nakai, T. Vreven, J. A. Montgomery, Jr., 
 J. E. Peralta, F. Ogliaro, M. Bearpark, J. J. Heyd, E. Brothers, 
 K. N. Kudin, V. N. Staroverov, T. Keith, R. Kobayashi, J. Normand, 
 K. Raghavachari, A. Rendell, J. C. Burant, S. S. Iyengar, J. Tomasi, 
 M. Cossi, N. Rega, J. M. Millam, M. Klene, J. E. Knox, J. B. Cross, 
 V. Bakken, C. Adamo, J. Jaramillo, R. Gomperts, R. E. Stratmann, 
 O. Yazyev, A. J. Austin, R. Cammi, C. Pomelli, J. W. Ochterski, 
 R. L. Martin, K. Morokuma, V. G. Zakrzewski, G. A. Voth, 
 P. Salvador, J. J. Dannenberg, S. Dapprich, A. D. Daniels, 
 O. Farkas, J. B. Foresman, J. V. Ortiz, J. Cioslowski, 
 and D. J. Fox, Gaussian, Inc., Wallingford CT, 2010.
 
 ******************************************
 Gaussian 09:  IA32W-G09RevB.01 12-Aug-2010
                31-Jul-2023 
 ******************************************
 %nprocshared=6
 Will use up to    6 processors via shared memory.
 %chk=G:\Meu Drive\POS-DOC-IME\SUBSTITUINTES-DOADORES\DPP-substituido\DPP-SUB-4A-
 OPT-FREQ-CONT-2.chk
 ----------------------------------------------------
 # opt freq b3lyp/6-31+g(d,p) geom=connectivity polar
 ----------------------------------------------------
 1/14=-1,18=20,19=15,26=3,38=1,57=2/1,3;
 2/9=110,12=2,17=6,18=5,40=1/2;
 3/5=1,6=6,7=111,11=2,16=1,25=1,30=1,71=1,74=-5/1,2,3;
 4//1;
 5/5=2,38=5,98=1/2;
 6/7=2,8=2,9=2,10=2,28=1/1;
 7//1,2,3,16;
 1/14=-1,18=20,19=15/3(2);
 2/9=110/2;
 99//99;
 2/9=110/2;
 3/5=1,6=6,7=111,11=2,16=1,25=1,30=1,71=1,74=-5/1,2,3;
 4/5=5,16=3/1;
 5/5=2,38=5,98=1/2;
 7//1,2,3,16;
 1/14=-1,18=20,19=15/3(-5);
 2/9=110/2;
 6/7=2,8=2,9=2,10=2,19=2,28=1/1;
 99/9=1/99;
 -------------------
 Title Card Required
 -------------------
 Symbolic Z-matrix:
 Charge =  0 Multiplicity = 1
 N                     1.5652    1.42903  -0.30359 
 C                     0.19554   1.80249  -0.3881 
 C                     1.75846   0.04895  -0.33582 
 C                     0.493    -0.52015  -0.39491 
 C                    -0.49297   0.52022  -0.39498 
 C                    -1.75841  -0.04883  -0.33552 
 C                    -0.1955   -1.80242  -0.38783 
 N                    -1.56519  -1.42893  -0.30276 
 O                    -0.18449   2.96742  -0.46765 
 O                     0.18446  -2.96736  -0.4674 
 H                    -2.28996  -2.10664  -0.49117 
 H                     2.28999   2.10683  -0.49153 
 C                     5.54982  -0.55471   0.05207 
 C                     4.26051   0.11279   0.17888 
 C                     3.07399  -0.56644  -0.31116 
 C                     3.21413  -1.8585   -0.79848 
 H                     2.32984  -2.39646  -1.12411 
 C                     4.47882  -2.50144  -0.89605 
 H                     4.51965  -3.50758  -1.30117 
 C                     5.63085  -1.86579  -0.50731 
 H                     6.59813  -2.35079  -0.59964 
 C                     4.38976   1.33843   0.82135 
 H                     3.62173   2.02509   1.14292 
 C                     6.5919    0.20172   0.57162 
 H                     7.6423   -0.05177   0.60668 
 S                     6.02597   1.6771    1.2295 
 C                    -4.26051  -0.11282   0.17896 
 C                    -5.54979   0.55479   0.05234 
 C                    -5.63073   1.86607  -0.50654 
 H                    -6.59798   2.35115  -0.59877 
 C                    -4.47865   2.50176  -0.89513 
 H                    -4.51944   3.50801  -1.29999 
 C                    -3.21401   1.85877  -0.79766 
 H                    -2.32967   2.39676  -1.12309 
 C                    -3.07389   0.56662  -0.31056 
 C                    -6.59195  -0.20184   0.57146 
 H                    -7.64235   0.05167   0.60647 
 C                    -4.38988  -1.33877   0.82084 
 H                    -3.62191  -2.02561   1.14214 
 S                    -6.02615  -1.67755   1.2287 
 

 GradGradGradGradGradGradGradGradGradGradGradGradGradGradGradGradGradGrad
 Berny optimization.
 Initialization pass.
                           ----------------------------
                           !    Initial Parameters    !
                           ! (Angstroms and Degrees)  !
 --------------------------                            --------------------------
 ! Name  Definition              Value          Derivative Info.                !
 --------------------------------------------------------------------------------
 ! R1    R(1,2)                  1.4222         estimate D2E/DX2                !
 ! R2    R(1,3)                  1.3939         estimate D2E/DX2                !
 ! R3    R(1,12)                 1.01           estimate D2E/DX2                !
 ! R4    R(2,5)                  1.4554         estimate D2E/DX2                !
 ! R5    R(2,9)                  1.2279         estimate D2E/DX2                !
 ! R6    R(3,4)                  1.3888         estimate D2E/DX2                !
 ! R7    R(3,15)                 1.4526         estimate D2E/DX2                !
 ! R8    R(4,5)                  1.4334         estimate D2E/DX2                !
 ! R9    R(4,7)                  1.4554         estimate D2E/DX2                !
 ! R10   R(5,6)                  1.3888         estimate D2E/DX2                !
 ! R11   R(6,8)                  1.3939         estimate D2E/DX2                !
 ! R12   R(6,35)                 1.4525         estimate D2E/DX2                !
 ! R13   R(7,8)                  1.4222         estimate D2E/DX2                !
 ! R14   R(7,10)                 1.2279         estimate D2E/DX2                !
 ! R15   R(8,11)                 1.01           estimate D2E/DX2                !
 ! R16   R(13,14)                1.4574         estimate D2E/DX2                !
 ! R17   R(13,20)                1.4277         estimate D2E/DX2                !
 ! R18   R(13,24)                1.3885         estimate D2E/DX2                !
 ! R19   R(14,15)                1.4523         estimate D2E/DX2                !
 ! R20   R(14,22)                1.3898         estimate D2E/DX2                !
 ! R21   R(15,16)                1.388          estimate D2E/DX2                !
 ! R22   R(16,17)                1.0851         estimate D2E/DX2                !
 ! R23   R(16,18)                1.4221         estimate D2E/DX2                !
 ! R24   R(18,19)                1.0854         estimate D2E/DX2                !
 ! R25   R(18,20)                1.372          estimate D2E/DX2                !
 ! R26   R(20,21)                1.086          estimate D2E/DX2                !
 ! R27   R(22,23)                1.0793         estimate D2E/DX2                !
 ! R28   R(22,26)                1.72           estimate D2E/DX2                !
 ! R29   R(24,25)                1.0811         estimate D2E/DX2                !
 ! R30   R(24,26)                1.7117         estimate D2E/DX2                !
 ! R31   R(27,28)                1.4574         estimate D2E/DX2                !
 ! R32   R(27,35)                1.4524         estimate D2E/DX2                !
 ! R33   R(27,38)                1.3898         estimate D2E/DX2                !
 ! R34   R(28,29)                1.4277         estimate D2E/DX2                !
 ! R35   R(28,36)                1.3885         estimate D2E/DX2                !
 ! R36   R(29,30)                1.086          estimate D2E/DX2                !
 ! R37   R(29,31)                1.372          estimate D2E/DX2                !
 ! R38   R(31,32)                1.0854         estimate D2E/DX2                !
 ! R39   R(31,33)                1.4221         estimate D2E/DX2                !
 ! R40   R(33,34)                1.0851         estimate D2E/DX2                !
 ! R41   R(33,35)                1.388          estimate D2E/DX2                !
 ! R42   R(36,37)                1.0811         estimate D2E/DX2                !
 ! R43   R(36,40)                1.7117         estimate D2E/DX2                !
 ! R44   R(38,39)                1.0792         estimate D2E/DX2                !
 ! R45   R(38,40)                1.72           estimate D2E/DX2                !
 ! A1    A(2,1,3)              113.0878         estimate D2E/DX2                !
 ! A2    A(2,1,12)             120.2544         estimate D2E/DX2                !
 ! A3    A(3,1,12)             124.1006         estimate D2E/DX2                !
 ! A4    A(1,2,5)              102.9746         estimate D2E/DX2                !
 ! A5    A(1,2,9)              123.4379         estimate D2E/DX2                !
 ! A6    A(5,2,9)              133.5593         estimate D2E/DX2                !
 ! A7    A(1,3,4)              106.2818         estimate D2E/DX2                !
 ! A8    A(1,3,15)             122.999          estimate D2E/DX2                !
 ! A9    A(4,3,15)             130.719          estimate D2E/DX2                !
 ! A10   A(3,4,5)              109.23           estimate D2E/DX2                !
 ! A11   A(3,4,7)              142.3598         estimate D2E/DX2                !
 ! A12   A(5,4,7)              108.3042         estimate D2E/DX2                !
 ! A13   A(2,5,4)              108.3041         estimate D2E/DX2                !
 ! A14   A(2,5,6)              142.3581         estimate D2E/DX2                !
 ! A15   A(4,5,6)              109.2311         estimate D2E/DX2                !
 ! A16   A(5,6,8)              106.2831         estimate D2E/DX2                !
 ! A17   A(5,6,35)             130.7175         estimate D2E/DX2                !
 ! A18   A(8,6,35)             122.9993         estimate D2E/DX2                !
 ! A19   A(4,7,8)              102.9741         estimate D2E/DX2                !
 ! A20   A(4,7,10)             133.5617         estimate D2E/DX2                !
 ! A21   A(8,7,10)             123.4363         estimate D2E/DX2                !
 ! A22   A(6,8,7)              113.084          estimate D2E/DX2                !
 ! A23   A(6,8,11)             124.0897         estimate D2E/DX2                !
 ! A24   A(7,8,11)             120.2464         estimate D2E/DX2                !
 ! A25   A(14,13,20)           120.3243         estimate D2E/DX2                !
 ! A26   A(14,13,24)           112.4494         estimate D2E/DX2                !
 ! A27   A(20,13,24)           127.1759         estimate D2E/DX2                !
 ! A28   A(13,14,15)           118.6325         estimate D2E/DX2                !
 ! A29   A(13,14,22)           111.2141         estimate D2E/DX2                !
 ! A30   A(15,14,22)           130.1182         estimate D2E/DX2                !
 ! A31   A(3,15,14)            123.1949         estimate D2E/DX2                !
 ! A32   A(3,15,16)            118.6762         estimate D2E/DX2                !
 ! A33   A(14,15,16)           118.1203         estimate D2E/DX2                !
 ! A34   A(15,16,17)           118.985          estimate D2E/DX2                !
 ! A35   A(15,16,18)           122.3264         estimate D2E/DX2                !
 ! A36   A(17,16,18)           118.687          estimate D2E/DX2                !
 ! A37   A(16,18,19)           118.5649         estimate D2E/DX2                !
 ! A38   A(16,18,20)           121.1876         estimate D2E/DX2                !
 ! A39   A(19,18,20)           120.2409         estimate D2E/DX2                !
 ! A40   A(13,20,18)           119.2623         estimate D2E/DX2                !
 ! A41   A(13,20,21)           119.6019         estimate D2E/DX2                !
 ! A42   A(18,20,21)           121.1242         estimate D2E/DX2                !
 ! A43   A(14,22,23)           129.2443         estimate D2E/DX2                !
 ! A44   A(14,22,26)           111.8261         estimate D2E/DX2                !
 ! A45   A(23,22,26)           118.7493         estimate D2E/DX2                !
 ! A46   A(13,24,25)           127.8477         estimate D2E/DX2                !
 ! A47   A(13,24,26)           111.4226         estimate D2E/DX2                !
 ! A48   A(25,24,26)           120.7214         estimate D2E/DX2                !
 ! A49   A(22,26,24)            93.0723         estimate D2E/DX2                !
 ! A50   A(28,27,35)           118.633          estimate D2E/DX2                !
 ! A51   A(28,27,38)           111.2138         estimate D2E/DX2                !
 ! A52   A(35,27,38)           130.1179         estimate D2E/DX2                !
 ! A53   A(27,28,29)           120.3243         estimate D2E/DX2                !
 ! A54   A(27,28,36)           112.4496         estimate D2E/DX2                !
 ! A55   A(29,28,36)           127.176          estimate D2E/DX2                !
 ! A56   A(28,29,30)           119.602          estimate D2E/DX2                !
 ! A57   A(28,29,31)           119.2626         estimate D2E/DX2                !
 ! A58   A(30,29,31)           121.1239         estimate D2E/DX2                !
 ! A59   A(29,31,32)           120.2405         estimate D2E/DX2                !
 ! A60   A(29,31,33)           121.1877         estimate D2E/DX2                !
 ! A61   A(32,31,33)           118.5653         estimate D2E/DX2                !
 ! A62   A(31,33,34)           118.6883         estimate D2E/DX2                !
 ! A63   A(31,33,35)           122.3275         estimate D2E/DX2                !
 ! A64   A(34,33,35)           118.9826         estimate D2E/DX2                !
 ! A65   A(6,35,27)            123.1958         estimate D2E/DX2                !
 ! A66   A(6,35,33)            118.6751         estimate D2E/DX2                !
 ! A67   A(27,35,33)           118.12           estimate D2E/DX2                !
 ! A68   A(28,36,37)           127.8464         estimate D2E/DX2                !
 ! A69   A(28,36,40)           111.4227         estimate D2E/DX2                !
 ! A70   A(37,36,40)           120.7227         estimate D2E/DX2                !
 ! A71   A(27,38,39)           129.2437         estimate D2E/DX2                !
 ! A72   A(27,38,40)           111.8263         estimate D2E/DX2                !
 ! A73   A(39,38,40)           118.7497         estimate D2E/DX2                !
 ! A74   A(36,40,38)            93.0721         estimate D2E/DX2                !
 ! D1    D(3,1,2,5)              3.4049         estimate D2E/DX2                !
 ! D2    D(3,1,2,9)           -174.8987         estimate D2E/DX2                !
 ! D3    D(12,1,2,5)           165.9987         estimate D2E/DX2                !
 ! D4    D(12,1,2,9)           -12.3049         estimate D2E/DX2                !
 ! D5    D(2,1,3,4)             -2.1167         estimate D2E/DX2                !
 ! D6    D(2,1,3,15)           177.7497         estimate D2E/DX2                !
 ! D7    D(12,1,3,4)          -163.9335         estimate D2E/DX2                !
 ! D8    D(12,1,3,15)           15.9329         estimate D2E/DX2                !
 ! D9    D(1,2,5,4)             -3.3409         estimate D2E/DX2                !
 ! D10   D(1,2,5,6)            172.194          estimate D2E/DX2                !
 ! D11   D(9,2,5,4)            174.7055         estimate D2E/DX2                !
 ! D12   D(9,2,5,6)             -9.7596         estimate D2E/DX2                !
 ! D13   D(1,3,4,5)             -0.1798         estimate D2E/DX2                !
 ! D14   D(1,3,4,7)           -175.7084         estimate D2E/DX2                !
 ! D15   D(15,3,4,5)           179.968          estimate D2E/DX2                !
 ! D16   D(15,3,4,7)             4.4393         estimate D2E/DX2                !
 ! D17   D(1,3,15,14)           20.8775         estimate D2E/DX2                !
 ! D18   D(1,3,15,16)         -158.0367         estimate D2E/DX2                !
 ! D19   D(4,3,15,14)         -159.2916         estimate D2E/DX2                !
 ! D20   D(4,3,15,16)           21.7942         estimate D2E/DX2                !
 ! D21   D(3,4,5,2)              2.2957         estimate D2E/DX2                !
 ! D22   D(3,4,5,6)           -174.8179         estimate D2E/DX2                !
 ! D23   D(7,4,5,2)            179.4212         estimate D2E/DX2                !
 ! D24   D(7,4,5,6)              2.3076         estimate D2E/DX2                !
 ! D25   D(3,4,7,8)            172.1878         estimate D2E/DX2                !
 ! D26   D(3,4,7,10)            -9.7546         estimate D2E/DX2                !
 ! D27   D(5,4,7,8)             -3.3654         estimate D2E/DX2                !
 ! D28   D(5,4,7,10)           174.6922         estimate D2E/DX2                !
 ! D29   D(2,5,6,8)           -175.6835         estimate D2E/DX2                !
 ! D30   D(2,5,6,35)             4.4435         estimate D2E/DX2                !
 ! D31   D(4,5,6,8)             -0.1732         estimate D2E/DX2                !
 ! D32   D(4,5,6,35)           179.9538         estimate D2E/DX2                !
 ! D33   D(5,6,8,7)             -2.1404         estimate D2E/DX2                !
 ! D34   D(5,6,8,11)          -163.8779         estimate D2E/DX2                !
 ! D35   D(35,6,8,7)           177.7448         estimate D2E/DX2                !
 ! D36   D(35,6,8,11)           16.0074         estimate D2E/DX2                !
 ! D37   D(5,6,35,27)         -159.3365         estimate D2E/DX2                !
 ! D38   D(5,6,35,33)           21.7795         estimate D2E/DX2                !
 ! D39   D(8,6,35,27)           20.8088         estimate D2E/DX2                !
 ! D40   D(8,6,35,33)         -158.0752         estimate D2E/DX2                !
 ! D41   D(4,7,8,6)              3.4349         estimate D2E/DX2                !
 ! D42   D(4,7,8,11)           165.9521         estimate D2E/DX2                !
 ! D43   D(10,7,8,6)          -174.8786         estimate D2E/DX2                !
 ! D44   D(10,7,8,11)          -12.3613         estimate D2E/DX2                !
 ! D45   D(20,13,14,15)         -1.8318         estimate D2E/DX2                !
 ! D46   D(20,13,14,22)        176.2264         estimate D2E/DX2                !
 ! D47   D(24,13,14,15)       -179.4323         estimate D2E/DX2                !
 ! D48   D(24,13,14,22)         -1.3741         estimate D2E/DX2                !
 ! D49   D(14,13,20,18)         -1.4513         estimate D2E/DX2                !
 ! D50   D(14,13,20,21)        179.7758         estimate D2E/DX2                !
 ! D51   D(24,13,20,18)        175.7651         estimate D2E/DX2                !
 ! D52   D(24,13,20,21)         -3.0078         estimate D2E/DX2                !
 ! D53   D(14,13,24,25)       -179.9411         estimate D2E/DX2                !
 ! D54   D(14,13,24,26)          1.1146         estimate D2E/DX2                !
 ! D55   D(20,13,24,25)          2.6586         estimate D2E/DX2                !
 ! D56   D(20,13,24,26)       -176.2857         estimate D2E/DX2                !
 ! D57   D(13,14,15,3)        -174.7785         estimate D2E/DX2                !
 ! D58   D(13,14,15,16)          4.1414         estimate D2E/DX2                !
 ! D59   D(22,14,15,3)           7.5889         estimate D2E/DX2                !
 ! D60   D(22,14,15,16)       -173.4912         estimate D2E/DX2                !
 ! D61   D(13,14,22,23)       -173.9682         estimate D2E/DX2                !
 ! D62   D(13,14,22,26)          1.0131         estimate D2E/DX2                !
 ! D63   D(15,14,22,23)          3.8029         estimate D2E/DX2                !
 ! D64   D(15,14,22,26)        178.7842         estimate D2E/DX2                !
 ! D65   D(3,15,16,17)          -3.9172         estimate D2E/DX2                !
 ! D66   D(3,15,16,18)         175.6136         estimate D2E/DX2                !
 ! D67   D(14,15,16,17)        177.113          estimate D2E/DX2                !
 ! D68   D(14,15,16,18)         -3.3562         estimate D2E/DX2                !
 ! D69   D(15,16,18,19)       -179.0341         estimate D2E/DX2                !
 ! D70   D(15,16,18,20)          0.0409         estimate D2E/DX2                !
 ! D71   D(17,16,18,19)          0.498          estimate D2E/DX2                !
 ! D72   D(17,16,18,20)        179.573          estimate D2E/DX2                !
 ! D73   D(16,18,20,13)          2.407          estimate D2E/DX2                !
 ! D74   D(16,18,20,21)       -178.8394         estimate D2E/DX2                !
 ! D75   D(19,18,20,13)       -178.5334         estimate D2E/DX2                !
 ! D76   D(19,18,20,21)          0.2202         estimate D2E/DX2                !
 ! D77   D(14,22,26,24)         -0.3419         estimate D2E/DX2                !
 ! D78   D(23,22,26,24)        175.2261         estimate D2E/DX2                !
 ! D79   D(13,24,26,22)         -0.4604         estimate D2E/DX2                !
 ! D80   D(25,24,26,22)       -179.4907         estimate D2E/DX2                !
 ! D81   D(35,27,28,29)         -1.822          estimate D2E/DX2                !
 ! D82   D(35,27,28,36)       -179.4266         estimate D2E/DX2                !
 ! D83   D(38,27,28,29)        176.2327         estimate D2E/DX2                !
 ! D84   D(38,27,28,36)         -1.372          estimate D2E/DX2                !
 ! D85   D(28,27,35,6)        -174.7712         estimate D2E/DX2                !
 ! D86   D(28,27,35,33)          4.1187         estimate D2E/DX2                !
 ! D87   D(38,27,35,6)           7.6006         estimate D2E/DX2                !
 ! D88   D(38,27,35,33)       -173.5096         estimate D2E/DX2                !
 ! D89   D(28,27,38,39)       -173.9695         estimate D2E/DX2                !
 ! D90   D(28,27,38,40)          1.0114         estimate D2E/DX2                !
 ! D91   D(35,27,38,39)          3.7976         estimate D2E/DX2                !
 ! D92   D(35,27,38,40)        178.7785         estimate D2E/DX2                !
 ! D93   D(27,28,29,30)        179.7743         estimate D2E/DX2                !
 ! D94   D(27,28,29,31)         -1.4436         estimate D2E/DX2                !
 ! D95   D(36,28,29,30)         -3.0044         estimate D2E/DX2                !
 ! D96   D(36,28,29,31)        175.7778         estimate D2E/DX2                !
 ! D97   D(27,28,36,37)       -179.9366         estimate D2E/DX2                !
 ! D98   D(27,28,36,40)          1.113          estimate D2E/DX2                !
 ! D99   D(29,28,36,37)          2.6585         estimate D2E/DX2                !
 ! D100  D(29,28,36,40)       -176.2919         estimate D2E/DX2                !
 ! D101  D(28,29,31,32)       -178.5408         estimate D2E/DX2                !
 ! D102  D(28,29,31,33)          2.3946         estimate D2E/DX2                !
 ! D103  D(30,29,31,32)          0.2223         estimate D2E/DX2                !
 ! D104  D(30,29,31,33)       -178.8423         estimate D2E/DX2                !
 ! D105  D(29,31,33,34)        179.5768         estimate D2E/DX2                !
 ! D106  D(29,31,33,35)          0.0397         estimate D2E/DX2                !
 ! D107  D(32,31,33,34)          0.497          estimate D2E/DX2                !
 ! D108  D(32,31,33,35)       -179.0402         estimate D2E/DX2                !
 ! D109  D(31,33,35,6)         175.6039         estimate D2E/DX2                !
 ! D110  D(31,33,35,27)         -3.3373         estimate D2E/DX2                !
 ! D111  D(34,33,35,6)          -3.9319         estimate D2E/DX2                !
 ! D112  D(34,33,35,27)        177.1269         estimate D2E/DX2                !
 ! D113  D(28,36,40,38)         -0.4598         estimate D2E/DX2                !
 ! D114  D(37,36,40,38)       -179.4957         estimate D2E/DX2                !
 ! D115  D(27,38,40,36)         -0.3412         estimate D2E/DX2                !
 ! D116  D(39,38,40,36)        175.2263         estimate D2E/DX2                !
 --------------------------------------------------------------------------------
 Trust Radius=3.00D-01 FncErr=1.00D-07 GrdErr=1.00D-06
 Number of steps in this run=    240 maximum allowed number of steps=    240.
 GradGradGradGradGradGradGradGradGradGradGradGradGradGradGradGradGradGrad

                          Input orientation:                          
 ---------------------------------------------------------------------
 Center     Atomic      Atomic             Coordinates (Angstroms)
 Number     Number       Type             X           Y           Z
 ---------------------------------------------------------------------
      1          7           0        1.565204    1.429028   -0.303594
      2          6           0        0.195538    1.802488   -0.388103
      3          6           0        1.758464    0.048946   -0.335815
      4          6           0        0.493002   -0.520154   -0.394908
      5          6           0       -0.492973    0.520217   -0.394981
      6          6           0       -1.758411   -0.048832   -0.335516
      7          6           0       -0.195501   -1.802416   -0.387827
      8          7           0       -1.565193   -1.428930   -0.302763
      9          8           0       -0.184492    2.967424   -0.467646
     10          8           0        0.184460   -2.967360   -0.467398
     11          1           0       -2.289960   -2.106637   -0.491168
     12          1           0        2.289986    2.106825   -0.491533
     13          6           0        5.549819   -0.554714    0.052071
     14          6           0        4.260509    0.112789    0.178876
     15          6           0        3.073988   -0.566439   -0.311162
     16          6           0        3.214134   -1.858501   -0.798484
     17          1           0        2.329838   -2.396456   -1.124110
     18          6           0        4.478815   -2.501438   -0.896047
     19          1           0        4.519646   -3.507579   -1.301173
     20          6           0        5.630849   -1.865790   -0.507309
     21          1           0        6.598134   -2.350793   -0.599641
     22          6           0        4.389756    1.338428    0.821353
     23          1           0        3.621727    2.025094    1.142920
     24          6           0        6.591895    0.201717    0.571616
     25          1           0        7.642297   -0.051768    0.606680
     26         16           0        6.025966    1.677098    1.229504
     27          6           0       -4.260515   -0.112824    0.178960
     28          6           0       -5.549787    0.554788    0.052340
     29          6           0       -5.630725    1.866074   -0.506543
     30          1           0       -6.597982    2.351149   -0.598767
     31          6           0       -4.478653    2.501760   -0.895129
     32          1           0       -4.519438    3.508010   -1.299988
     33          6           0       -3.214008    1.858769   -0.797656
     34          1           0       -2.329667    2.396759   -1.123089
     35          6           0       -3.073890    0.566624   -0.310561
     36          6           0       -6.591949   -0.201835    0.571460
     37          1           0       -7.642347    0.051673    0.606473
     38          6           0       -4.389882   -1.338765    0.820839
     39          1           0       -3.621913   -2.025613    1.142138
     40         16           0       -6.026154   -1.677548    1.228700
 ---------------------------------------------------------------------
                    Distance matrix (angstroms):
                    1          2          3          4          5
     1  N    0.000000
     2  C    1.422181   0.000000
     3  C    1.393920   2.349549   0.000000
     4  C    2.226492   2.341623   1.388798   0.000000
     5  C    2.251751   1.455443   2.300992   1.433359   0.000000
     6  C    3.637514   2.692224   3.518234   2.300985   1.388771
     7  C    3.680952   3.626051   2.692253   1.455432   2.341616
     8  N    4.238786   3.680967   3.637569   2.251784   2.226507
     9  O    2.335597   1.227936   3.508557   3.553518   2.467643
    10  O    4.611021   4.770520   3.404835   2.467645   3.553499
    11  H    5.234348   4.633528   4.589162   3.204851   3.184144
    12  H    1.009970   2.118969   2.131110   3.184259   3.204919
    13  C    4.465298   5.866726   3.858657   5.076651   6.153915
    14  C    3.038080   4.438529   2.555232   3.863153   4.805299
    15  C    2.501674   3.728701   1.452553   2.582759   3.729753
    16  C    3.711029   4.762686   2.443643   3.059184   4.423094
    17  H    3.986507   4.767397   2.632084   2.725108   4.123939
    18  C    4.928356   6.093295   3.770760   4.479211   5.839533
    19  H    5.839005   6.908576   4.604879   5.095085   6.493895
    20  C    5.237060   6.558436   4.323308   5.312329   6.573191
    21  H    6.301196   7.634640   5.408397   6.376974   7.652998
    22  C    3.041679   4.389715   3.150476   4.485344   5.098037
    23  H    2.583986   3.759303   3.092502   4.316494   4.643334
    24  C    5.247848   6.663101   4.920246   6.217054   7.157591
    25  H    6.320792   7.738351   5.959692   7.234292   8.216636
    26  S    4.723381   6.051964   4.828320   6.170925   6.817176
    27  C    6.045591   4.883276   6.043118   4.805327   3.863227
    28  C    7.177331   5.895719   7.336012   6.153928   5.076678
    29  C    7.212045   5.827814   7.611256   6.573171   5.312276
    30  H    8.220404   6.818895   8.671763   7.652973   6.376910
    31  C    6.166756   4.753327   6.725382   5.839481   4.479097
    32  H    6.506753   5.096208   7.232344   6.493830   5.094935
    33  C    4.823862   3.434517   5.311707   4.423054   3.059068
    34  H    4.096107   2.696298   4.779628   4.123844   2.724885
    35  C    4.718578   3.496074   4.860069   3.729734   2.582714
    36  C    8.364483   7.141992   8.403299   7.157634   6.217144
    37  H    9.354375   8.092402   9.447918   8.216669   7.234362
    38  C    6.662438   5.688153   6.408256   5.098110   4.485525
    39  H    6.397724   5.618623   5.952865   4.643430   4.316741
    40  S    8.344307   7.309867   8.125809   6.817262   6.171110
                    6          7          8          9         10
     6  C    0.000000
     7  C    2.349570   0.000000
     8  N    1.393943   1.422246   0.000000
     9  O    3.404773   4.770521   4.611014   0.000000
    10  O    3.508553   1.227924   2.335628   5.946241   0.000000
    11  H    2.131040   2.118959   1.009985   5.493600   2.619955
    12  H    4.589196   4.633634   5.234463   2.619970   5.493740
    13  C    7.335964   5.895674   7.177295   6.749658   5.905742
    14  C    6.043022   4.883153   6.045468   5.322120   5.149676
    15  C    4.860102   3.496151   4.718682   4.809404   3.760080
    16  C    5.311821   3.434734   4.824131   5.911824   3.243164
    17  H    4.779853   2.696726   4.096582   5.960202   2.315135
    18  C    6.725508   4.753541   6.167033   7.199890   4.340773
    19  H    7.232525   5.096508   6.507140   8.046698   4.447567
    20  C    7.611308   5.827920   7.212191   7.561727   5.556816
    21  H    8.671830   6.819022   8.220576   8.620027   6.444599
    22  C    6.408026   5.687847   6.662081   5.023832   6.155096
    23  H    5.952548   5.618207   6.397220   4.239011   6.271565
    24  C    8.403170   7.141836   8.364307   7.392471   7.223422
    25  H    9.447807   8.092273   9.354225   8.457442   8.079211
    26  S    8.125555   7.309544   8.343917   6.566205   7.653343
    27  C    2.555250   4.438503   3.037919   5.149756   5.322026
    28  C    3.858668   5.866731   4.465224   5.905725   6.749611
    29  C    4.323301   6.558473   5.237092   5.556612   7.561745
    30  H    5.408388   7.634681   6.301236   6.444365   8.620053
    31  C    3.770730   6.093331   4.928435   4.340438   7.199920
    32  H    4.604845   6.908625   5.839126   4.447110   8.046756
    33  C    2.443620   4.762732   3.711128   3.242837   5.911867
    34  H    2.632018   4.767425   3.986634   2.314528   5.960246
    35  C    1.452547   3.728732   2.501692   3.759938   4.809416
    36  C    4.920275   6.663080   5.247695   7.223534   7.392366
    37  H    5.959710   7.738333   6.320656   8.079291   8.457344
    38  C    3.150512   4.389610   3.041296   6.155385   5.023592
    39  H    3.092534   3.759110   2.583383   6.271976   4.238628
    40  S    4.828366   6.051881   4.723067   7.653651   6.565980
                   11         12         13         14         15
    11  H    0.000000
    12  H    6.223276   0.000000
    13  C    8.010350   4.243325   0.000000
    14  C    6.948630   2.882462   1.457381   0.000000
    15  C    5.583597   2.791690   2.502362   1.452350   0.000000
    16  C    5.518248   4.083146   2.806907   2.436415   1.388001
    17  H    4.671953   4.547668   3.891490   3.423678   2.136260
    18  C    6.792357   5.117684   2.415722   2.835013   2.461676
    19  H    6.999249   6.094951   3.407629   3.919791   3.423500
    20  C    7.924486   5.190692   1.427723   2.502690   2.874774
    21  H    8.892108   6.200176   2.179356   3.484224   3.960649
    22  C    7.629534   2.592901   2.349793   1.389846   2.577276
    23  H    7.395234   2.109894   3.400426   2.234801   3.021658
    24  C    9.238255   4.823499   1.388538   2.365907   3.707429
    25  H   10.201837   5.874762   2.222388   3.412709   4.687938
    26  S    9.296881   4.135720   2.567888   2.582193   4.015132
    27  C    2.882265   6.948774   9.821101   8.524010   7.364844
    28  C    4.243237   8.010409  11.154920   9.821063   8.703952
    29  C    5.190701   7.924383  11.453245  10.068779   9.040316
    30  H    6.200201   8.891972  12.507466  11.114037  10.106535
    31  C    5.117703   6.792153  10.526608   9.123246   8.172958
    32  H    6.095000   6.998941  10.941834   9.529010   8.674043
    33  C    4.083166   5.518079   9.129710   7.737601   6.757011
    34  H    4.547689   4.671629   8.495793   7.095213   6.216048
    35  C    2.791682   5.583559   8.703865   7.364708   6.251419
    36  C    4.823335   9.238432  12.157994  10.864113   9.712996
    37  H    5.874620  10.201985  13.217727  11.910691  10.773298
    38  C    2.592424   7.629879  10.000170   8.794793   7.588628
    39  H    2.109112   7.395706   9.352671   8.223941   7.005452
    40  S    4.135361   9.297250  11.689669  10.493945   9.296146
                   16         17         18         19         20
    16  C    0.000000
    17  H    1.085084   0.000000
    18  C    1.422078   2.163593   0.000000
    19  H    2.162525   2.461951   1.085410   0.000000
    20  C    2.434204   3.399812   1.371987   2.135524   0.000000
    21  H    3.425397   4.300640   2.145242   2.480003   1.085999
    22  C    3.771779   4.688011   4.207370   5.292048   3.684110
    23  H    4.360905   5.134054   5.038003   6.114762   4.679616
    24  C    4.186997   5.271728   3.731781   4.643321   2.522355
    25  H    4.984716   6.059325   4.273955   5.033238   2.928749
    26  S    4.951726   5.982867   4.936781   5.962734   3.965437
    27  C    7.737775   7.095472   9.123432   9.529238  10.068909
    28  C    9.129851   8.496021  10.526767  10.942043  11.453341
    29  C    9.601522   9.051028  11.019513  11.512498  11.863805
    30  H   10.678889  10.125300  12.096752  12.586490  12.935813
    31  C    8.843087   8.390501  10.260030  10.828038  11.019434
    32  H    9.426510   9.044680  10.827982  11.442182  11.512358
    33  C    7.425571   6.996266   8.843111   9.426591   9.601465
    34  H    6.996166   6.684751   8.390430   9.044667   9.050874
    35  C    6.757111   6.216267   8.173075   8.674228   9.040345
    36  C   10.038952   9.342890  11.401911  11.743178  12.382620
    37  H   11.112419  10.413104  12.477921  12.814892  13.457151
    38  C    7.791880   7.075039   9.107870   9.412034  10.122094
    39  H    7.108128   6.379400   8.366744   8.628498   9.399991
    40  S    9.461773   8.710634  10.749312  10.998326  11.787064
                   21         22         23         24         25
    21  H    0.000000
    22  C    4.528411   0.000000
    23  H    5.571706   1.079252   0.000000
    24  C    2.808414   2.490762   3.531712   0.000000
    25  H    2.798393   3.543692   4.556961   1.081124   0.000000
    26  S    4.460611   1.720020   2.430836   1.711678   2.447328
    27  C   11.114179   8.794657   8.223725  10.864065  11.910651
    28  C   12.507576   9.999999   9.352424  12.157909  13.217650
    29  C   12.935827  10.121846   9.399675  12.382445  13.456987
    30  H   14.008774  11.125319  10.372186  13.415018  14.491814
    31  C   12.096685   9.107597   8.366422  11.401692  12.477715
    32  H   12.586360   9.411743   8.628175  11.742921  12.814648
    33  C   10.678846   7.791609   7.107797  10.038748  11.112231
    34  H   10.125161   7.074713   6.379030   9.342618  10.412850
    35  C   10.106579   7.588341   7.005072   9.712816  10.773133
    36  C   13.415207  11.092011  10.469239  13.190019  14.235081
    37  H   14.491993  12.102620  11.448211  14.235075  15.284994
    38  C   11.125577   9.178748   8.695123  11.092097  12.102709
    39  H   10.372507   8.695201   8.299310  10.469402  11.448371
    40  S   12.773752  10.851416  10.334337  12.774136  13.778847
                   26         27         28         29         30
    26  S    0.000000
    27  C   10.493767   0.000000
    28  C   11.689455   1.457381   0.000000
    29  C   11.786773   2.502684   1.427716   0.000000
    30  H   12.773448   3.484218   2.179350   1.085997   0.000000
    31  C   10.749007   2.835013   2.415725   1.371993   2.145243
    32  H   10.998005   3.919792   3.407628   2.135525   2.479997
    33  C    9.461475   2.436418   2.806906   2.434198   3.425387
    34  H    8.710293   3.423669   3.891486   3.399815   4.300640
    35  C    9.295823   1.452363   2.502380   2.874784   3.960659
    36  C   12.774004   2.365917   1.388548   2.522358   2.808415
    37  H   13.778714   3.412714   2.222385   2.928733   2.798373
    38  C   10.851374   1.389847   2.349790   3.684105   4.528405
    39  H   10.334373   2.234790   3.400416   4.679605   5.571695
    40  S   12.510286   2.582208   2.567893   3.965437   4.460608
                   31         32         33         34         35
    31  C    0.000000
    32  H    1.085409   0.000000
    33  C    1.422064   2.162517   0.000000
    34  H    2.163592   2.461964   1.085080   0.000000
    35  C    2.461672   3.423496   1.387996   2.136227   0.000000
    36  C    3.731800   4.643336   4.187010   5.271739   3.707456
    37  H    4.273955   5.033232   4.984713   6.059322   4.687955
    38  C    4.207381   5.292062   3.771794   4.688015   2.577287
    39  H    5.038012   6.114778   4.360919   5.134056   3.021648
    40  S    4.936803   5.962757   4.951749   5.982884   4.015158
                   36         37         38         39         40
    36  C    0.000000
    37  H    1.081124   0.000000
    38  C    2.490763   3.543699   0.000000
    39  H    3.531707   4.556966   1.079245   0.000000
    40  S    1.711671   2.447336   1.720032   2.430847   0.000000
 Stoichiometry    C22H12N2O2S2
 Framework group  C1[X(C22H12N2O2S2)]
 Deg. of freedom   114
 Full point group                 C1      NOp   1
 Largest Abelian subgroup         C1      NOp   1
 Largest concise Abelian subgroup C1      NOp   1
                         Standard orientation:                         
 ---------------------------------------------------------------------
 Center     Atomic      Atomic             Coordinates (Angstroms)
 Number     Number       Type             X           Y           Z
 ---------------------------------------------------------------------
      1          7           0        1.565204    1.429028   -0.303594
      2          6           0        0.195538    1.802488   -0.388103
      3          6           0        1.758464    0.048946   -0.335815
      4          6           0        0.493002   -0.520154   -0.394908
      5          6           0       -0.492973    0.520217   -0.394981
      6          6           0       -1.758411   -0.048832   -0.335516
      7          6           0       -0.195501   -1.802416   -0.387827
      8          7           0       -1.565193   -1.428930   -0.302763
      9          8           0       -0.184492    2.967424   -0.467646
     10          8           0        0.184460   -2.967360   -0.467398
     11          1           0       -2.289960   -2.106637   -0.491168
     12          1           0        2.289986    2.106825   -0.491533
     13          6           0        5.549819   -0.554714    0.052071
     14          6           0        4.260509    0.112789    0.178876
     15          6           0        3.073988   -0.566439   -0.311162
     16          6           0        3.214134   -1.858501   -0.798484
     17          1           0        2.329838   -2.396456   -1.124110
     18          6           0        4.478815   -2.501438   -0.896047
     19          1           0        4.519646   -3.507579   -1.301173
     20          6           0        5.630849   -1.865790   -0.507309
     21          1           0        6.598134   -2.350793   -0.599641
     22          6           0        4.389756    1.338428    0.821353
     23          1           0        3.621727    2.025094    1.142920
     24          6           0        6.591895    0.201717    0.571616
     25          1           0        7.642297   -0.051768    0.606680
     26         16           0        6.025966    1.677098    1.229504
     27          6           0       -4.260515   -0.112824    0.178960
     28          6           0       -5.549787    0.554788    0.052340
     29          6           0       -5.630725    1.866074   -0.506543
     30          1           0       -6.597982    2.351149   -0.598767
     31          6           0       -4.478653    2.501760   -0.895129
     32          1           0       -4.519438    3.508010   -1.299988
     33          6           0       -3.214008    1.858769   -0.797656
     34          1           0       -2.329667    2.396759   -1.123089
     35          6           0       -3.073890    0.566624   -0.310561
     36          6           0       -6.591949   -0.201835    0.571460
     37          1           0       -7.642347    0.051673    0.606473
     38          6           0       -4.389882   -1.338765    0.820839
     39          1           0       -3.621913   -2.025613    1.142138
     40         16           0       -6.026154   -1.677548    1.228700
 ---------------------------------------------------------------------
 Rotational constants (GHZ):      0.4081282      0.0686695      0.0615666
 Standard basis: 6-31+G(d,p) (6D, 7F)
 There are   600 symmetry adapted basis functions of A   symmetry.
 Integral buffers will be    262144 words long.
 Raffenetti 2 integral format.
 Two-electron integral symmetry is turned on.
   600 basis functions,  1028 primitive gaussians,   600 cartesian basis functions
   103 alpha electrons      103 beta electrons
       nuclear repulsion energy      2591.8067792094 Hartrees.
 NAtoms=   40 NActive=   40 NUniq=   40 SFac= 1.00D+00 NAtFMM=   50 NAOKFM=F Big=F
 One-electron integrals computed using PRISM.
 NBasis=   600 RedAO= T  NBF=   600
 NBsUse=   590 1.00D-06 NBFU=   590
 Harris functional with IExCor=  402 diagonalized for initial guess.
 ExpMin= 4.05D-02 ExpMax= 2.19D+04 ExpMxC= 3.30D+03 IAcc=2 IRadAn=         0 AccDes= 0.00D+00
 HarFok:  IExCor=  402 AccDes= 0.00D+00 IRadAn=         0 IDoV= 1
 ScaDFX=  1.000000  1.000000  1.000000  1.000000
 FoFCou: FMM=F IPFlag=           0 FMFlag=      100000 FMFlg1=           0
         NFxFlg=           0 DoJE=T BraDBF=F KetDBF=T FulRan=T
         Omega=  0.000000  0.000000  1.000000  0.000000  0.000000 ICntrl=     500 IOpCl=  0
         NMat0=    1 NMatS0=    1 NMatT0=    0 NMatD0=    1 NMtDS0=    0 NMtDT0=    0
         I1Cent=           4 NGrid=           0.
 Petite list used in FoFCou.
 Initial guess orbital symmetries:
       Occupied  (A) (A) (A) (A) (A) (A) (A) (A) (A) (A) (A) (A)
                 (A) (A) (A) (A) (A) (A) (A) (A) (A) (A) (A) (A)
                 (A) (A) (A) (A) (A) (A) (A) (A) (A) (A) (A) (A)
                 (A) (A) (A) (A) (A) (A) (A) (A) (A) (A) (A) (A)
                 (A) (A) (A) (A) (A) (A) (A) (A) (A) (A) (A) (A)
                 (A) (A) (A) (A) (A) (A) (A) (A) (A) (A) (A) (A)
                 (A) (A) (A) (A) (A) (A) (A) (A) (A) (A) (A) (A)
                 (A) (A) (A) (A) (A) (A) (A) (A) (A) (A) (A) (A)
                 (A) (A) (A) (A) (A) (A) (A)
       Virtual   (A) (A) (A) (A) (A) (A) (A) (A) (A) (A) (A) (A)
                 (A) (A) (A) (A) (A) (A) (A) (A) (A) (A) (A) (A)
                 (A) (A) (A) (A) (A) (A) (A) (A) (A) (A) (A) (A)
                 (A) (A) (A) (A) (A) (A) (A) (A) (A) (A) (A) (A)
                 (A) (A) (A) (A) (A) (A) (A) (A) (A) (A) (A) (A)
                 (A) (A) (A) (A) (A) (A) (A) (A) (A) (A) (A) (A)
                 (A) (A) (A) (A) (A) (A) (A) (A) (A) (A) (A) (A)
                 (A) (A) (A) (A) (A) (A) (A) (A) (A) (A) (A) (A)
                 (A) (A) (A) (A) (A) (A) (A) (A) (A) (A) (A) (A)
                 (A) (A) (A) (A) (A) (A) (A) (A) (A) (A) (A) (A)
                 (A) (A) (A) (A) (A) (A) (A) (A) (A) (A) (A) (A)
                 (A) (A) (A) (A) (A) (A) (A) (A) (A) (A) (A) (A)
                 (A) (A) (A) (A) (A) (A) (A) (A) (A) (A) (A) (A)
                 (A) (A) (A) (A) (A) (A) (A) (A) (A) (A) (A) (A)
                 (A) (A) (A) (A) (A) (A) (A) (A) (A) (A) (A) (A)
                 (A) (A) (A) (A) (A) (A) (A) (A) (A) (A) (A) (A)
                 (A) (A) (A) (A) (A) (A) (A) (A) (A) (A) (A) (A)
                 (A) (A) (A) (A) (A) (A) (A) (A) (A) (A) (A) (A)
                 (A) (A) (A) (A) (A) (A) (A) (A) (A) (A) (A) (A)
                 (A) (A) (A) (A) (A) (A) (A) (A) (A) (A) (A) (A)
                 (A) (A) (A) (A) (A) (A) (A) (A) (A) (A) (A) (A)
                 (A) (A) (A) (A) (A) (A) (A) (A) (A) (A) (A) (A)
                 (A) (A) (A) (A) (A) (A) (A) (A) (A) (A) (A) (A)
                 (A) (A) (A) (A) (A) (A) (A) (A) (A) (A) (A) (A)
                 (A) (A) (A) (A) (A) (A) (A) (A) (A) (A) (A) (A)
                 (A) (A) (A) (A) (A) (A) (A) (A) (A) (A) (A) (A)
                 (A) (A) (A) (A) (A) (A) (A) (A) (A) (A) (A) (A)
                 (A) (A) (A) (A) (A) (A) (A) (A) (A) (A) (A) (A)
                 (A) (A) (A) (A) (A) (A) (A) (A) (A) (A) (A) (A)
                 (A) (A) (A) (A) (A) (A) (A) (A) (A) (A) (A) (A)
                 (A) (A) (A) (A) (A) (A) (A) (A) (A) (A) (A) (A)
                 (A) (A) (A) (A) (A) (A) (A) (A) (A) (A) (A) (A)
                 (A) (A) (A) (A) (A) (A) (A) (A) (A) (A) (A) (A)
                 (A) (A) (A) (A) (A) (A) (A) (A) (A) (A) (A) (A)
                 (A) (A) (A) (A) (A) (A) (A) (A) (A) (A) (A) (A)
                 (A) (A) (A) (A) (A) (A) (A) (A) (A) (A) (A) (A)
                 (A) (A) (A) (A) (A) (A) (A) (A) (A) (A) (A) (A)
                 (A) (A) (A) (A) (A) (A) (A) (A) (A) (A) (A) (A)
                 (A) (A) (A) (A) (A) (A) (A) (A) (A) (A) (A) (A)
                 (A) (A) (A) (A) (A) (A) (A) (A) (A) (A) (A) (A)
                 (A) (A) (A) (A) (A) (A) (A)
 The electronic state of the initial guess is 1-A.
 Requested convergence on RMS density matrix=1.00D-08 within 128 cycles.
 Requested convergence on MAX density matrix=1.00D-06.
 Requested convergence on             energy=1.00D-06.
 No special actions if energy rises.
 SCF Done:  E(RB3LYP) =  -1901.95144504     A.U. after   17 cycles
             Convg  =    0.3780D-08             -V/T =  2.0069

 **********************************************************************

            Population analysis using the SCF density.

 **********************************************************************

 Orbital symmetries:
       Occupied  (A) (A) (A) (A) (A) (A) (A) (A) (A) (A) (A) (A)
                 (A) (A) (A) (A) (A) (A) (A) (A) (A) (A) (A) (A)
                 (A) (A) (A) (A) (A) (A) (A) (A) (A) (A) (A) (A)
                 (A) (A) (A) (A) (A) (A) (A) (A) (A) (A) (A) (A)
                 (A) (A) (A) (A) (A) (A) (A) (A) (A) (A) (A) (A)
                 (A) (A) (A) (A) (A) (A) (A) (A) (A) (A) (A) (A)
                 (A) (A) (A) (A) (A) (A) (A) (A) (A) (A) (A) (A)
                 (A) (A) (A) (A) (A) (A) (A) (A) (A) (A) (A) (A)
                 (A) (A) (A) (A) (A) (A) (A)
       Virtual   (A) (A) (A) (A) (A) (A) (A) (A) (A) (A) (A) (A)
                 (A) (A) (A) (A) (A) (A) (A) (A) (A) (A) (A) (A)
                 (A) (A) (A) (A) (A) (A) (A) (A) (A) (A) (A) (A)
                 (A) (A) (A) (A) (A) (A) (A) (A) (A) (A) (A) (A)
                 (A) (A) (A) (A) (A) (A) (A) (A) (A) (A) (A) (A)
                 (A) (A) (A) (A) (A) (A) (A) (A) (A) (A) (A) (A)
                 (A) (A) (A) (A) (A) (A) (A) (A) (A) (A) (A) (A)
                 (A) (A) (A) (A) (A) (A) (A) (A) (A) (A) (A) (A)
                 (A) (A) (A) (A) (A) (A) (A) (A) (A) (A) (A) (A)
                 (A) (A) (A) (A) (A) (A) (A) (A) (A) (A) (A) (A)
                 (A) (A) (A) (A) (A) (A) (A) (A) (A) (A) (A) (A)
                 (A) (A) (A) (A) (A) (A) (A) (A) (A) (A) (A) (A)
                 (A) (A) (A) (A) (A) (A) (A) (A) (A) (A) (A) (A)
                 (A) (A) (A) (A) (A) (A) (A) (A) (A) (A) (A) (A)
                 (A) (A) (A) (A) (A) (A) (A) (A) (A) (A) (A) (A)
                 (A) (A) (A) (A) (A) (A) (A) (A) (A) (A) (A) (A)
                 (A) (A) (A) (A) (A) (A) (A) (A) (A) (A) (A) (A)
                 (A) (A) (A) (A) (A) (A) (A) (A) (A) (A) (A) (A)
                 (A) (A) (A) (A) (A) (A) (A) (A) (A) (A) (A) (A)
                 (A) (A) (A) (A) (A) (A) (A) (A) (A) (A) (A) (A)
                 (A) (A) (A) (A) (A) (A) (A) (A) (A) (A) (A) (A)
                 (A) (A) (A) (A) (A) (A) (A) (A) (A) (A) (A) (A)
                 (A) (A) (A) (A) (A) (A) (A) (A) (A) (A) (A) (A)
                 (A) (A) (A) (A) (A) (A) (A) (A) (A) (A) (A) (A)
                 (A) (A) (A) (A) (A) (A) (A) (A) (A) (A) (A) (A)
                 (A) (A) (A) (A) (A) (A) (A) (A) (A) (A) (A) (A)
                 (A) (A) (A) (A) (A) (A) (A) (A) (A) (A) (A) (A)
                 (A) (A) (A) (A) (A) (A) (A) (A) (A) (A) (A) (A)
                 (A) (A) (A) (A) (A) (A) (A) (A) (A) (A) (A) (A)
                 (A) (A) (A) (A) (A) (A) (A) (A) (A) (A) (A) (A)
                 (A) (A) (A) (A) (A) (A) (A) (A) (A) (A) (A) (A)
                 (A) (A) (A) (A) (A) (A) (A) (A) (A) (A) (A) (A)
                 (A) (A) (A) (A) (A) (A) (A) (A) (A) (A) (A) (A)
                 (A) (A) (A) (A) (A) (A) (A) (A) (A) (A) (A) (A)
                 (A) (A) (A) (A) (A) (A) (A) (A) (A) (A) (A) (A)
                 (A) (A) (A) (A) (A) (A) (A) (A) (A) (A) (A) (A)
                 (A) (A) (A) (A) (A) (A) (A) (A) (A) (A) (A) (A)
                 (A) (A) (A) (A) (A) (A) (A) (A) (A) (A) (A) (A)
                 (A) (A) (A) (A) (A) (A) (A) (A) (A) (A) (A) (A)
                 (A) (A) (A) (A) (A) (A) (A) (A) (A) (A) (A) (A)
                 (A) (A) (A) (A) (A) (A) (A)
 The electronic state is 1-A.
 Alpha  occ. eigenvalues --  -88.94213 -88.94213 -19.13793 -19.13792 -14.39091
 Alpha  occ. eigenvalues --  -14.39090 -10.30598 -10.30598 -10.27127 -10.27126
 Alpha  occ. eigenvalues --  -10.23623 -10.23623 -10.23523 -10.23523 -10.23003
 Alpha  occ. eigenvalues --  -10.23002 -10.22885 -10.22885 -10.22353 -10.22353
 Alpha  occ. eigenvalues --  -10.21743 -10.21743 -10.21161 -10.21160 -10.20926
 Alpha  occ. eigenvalues --  -10.20926 -10.19939 -10.19896  -8.00111  -8.00111
 Alpha  occ. eigenvalues --   -5.96495  -5.96495  -5.96113  -5.96113  -5.95919
 Alpha  occ. eigenvalues --   -5.95919  -1.05292  -1.04791  -0.98139  -0.96825
 Alpha  occ. eigenvalues --   -0.91411  -0.91377  -0.85434  -0.85400  -0.81518
 Alpha  occ. eigenvalues --   -0.80420  -0.80049  -0.75642  -0.75499  -0.74850
 Alpha  occ. eigenvalues --   -0.73324  -0.71084  -0.69052  -0.68204  -0.64076
 Alpha  occ. eigenvalues --   -0.62855  -0.60975  -0.60250  -0.59811  -0.59187
 Alpha  occ. eigenvalues --   -0.56946  -0.55047  -0.54479  -0.53990  -0.50721
 Alpha  occ. eigenvalues --   -0.49964  -0.49590  -0.48339  -0.47986  -0.47254
 Alpha  occ. eigenvalues --   -0.47163  -0.46591  -0.45612  -0.43779  -0.43646
 Alpha  occ. eigenvalues --   -0.43574  -0.43416  -0.43094  -0.42628  -0.42180
 Alpha  occ. eigenvalues --   -0.41973  -0.41757  -0.39550  -0.37810  -0.37800
 Alpha  occ. eigenvalues --   -0.37504  -0.37447  -0.37255  -0.36386  -0.36299
 Alpha  occ. eigenvalues --   -0.35687  -0.34203  -0.34062  -0.30160  -0.29919
 Alpha  occ. eigenvalues --   -0.28278  -0.27405  -0.26745  -0.26702  -0.26480
 Alpha  occ. eigenvalues --   -0.23622  -0.22737  -0.19525
 Alpha virt. eigenvalues --   -0.10961  -0.08002  -0.05975  -0.02327  -0.00563
 Alpha virt. eigenvalues --   -0.00434  -0.00377  -0.00102   0.00170   0.00234
 Alpha virt. eigenvalues --    0.00701   0.00889   0.01149   0.01377   0.01865
 Alpha virt. eigenvalues --    0.02734   0.02954   0.03185   0.03391   0.03736
 Alpha virt. eigenvalues --    0.04028   0.04408   0.04803   0.05416   0.05612
 Alpha virt. eigenvalues --    0.05950   0.06027   0.06595   0.06856   0.07284
 Alpha virt. eigenvalues --    0.07809   0.07944   0.08051   0.08546   0.08855
 Alpha virt. eigenvalues --    0.09417   0.09594   0.09684   0.09813   0.10339
 Alpha virt. eigenvalues --    0.10636   0.10749   0.11143   0.11616   0.11702
 Alpha virt. eigenvalues --    0.11950   0.12564   0.12649   0.13118   0.13487
 Alpha virt. eigenvalues --    0.13571   0.13660   0.14602   0.14607   0.14780
 Alpha virt. eigenvalues --    0.15311   0.15425   0.15733   0.16062   0.16096
 Alpha virt. eigenvalues --    0.16666   0.16677   0.16948   0.17314   0.17403
 Alpha virt. eigenvalues --    0.17585   0.17713   0.17891   0.18005   0.18118
 Alpha virt. eigenvalues --    0.18558   0.19018   0.19100   0.19195   0.19746
 Alpha virt. eigenvalues --    0.19795   0.19954   0.20215   0.20462   0.20704
 Alpha virt. eigenvalues --    0.21515   0.21723   0.22185   0.22320   0.22394
 Alpha virt. eigenvalues --    0.22649   0.22865   0.23087   0.23214   0.23374
 Alpha virt. eigenvalues --    0.23878   0.23924   0.24020   0.24473   0.24949
 Alpha virt. eigenvalues --    0.25232   0.25424   0.25745   0.25983   0.26237
 Alpha virt. eigenvalues --    0.26285   0.26616   0.26811   0.27118   0.27285
 Alpha virt. eigenvalues --    0.27433   0.28154   0.28341   0.28522   0.28573
 Alpha virt. eigenvalues --    0.29205   0.29519   0.29741   0.29788   0.30119
 Alpha virt. eigenvalues --    0.30439   0.30783   0.30951   0.31614   0.31851
 Alpha virt. eigenvalues --    0.32285   0.32850   0.33398   0.33514   0.33875
 Alpha virt. eigenvalues --    0.34175   0.34692   0.34740   0.35520   0.35577
 Alpha virt. eigenvalues --    0.36638   0.36971   0.37570   0.37626   0.38426
 Alpha virt. eigenvalues --    0.39394   0.39784   0.40602   0.40945   0.41061
 Alpha virt. eigenvalues --    0.41499   0.43173   0.43545   0.45061   0.45108
 Alpha virt. eigenvalues --    0.45757   0.46383   0.47266   0.48096   0.48724
 Alpha virt. eigenvalues --    0.49112   0.49538   0.49978   0.50939   0.52092
 Alpha virt. eigenvalues --    0.53124   0.53343   0.54448   0.57382   0.57701
 Alpha virt. eigenvalues --    0.58524   0.59075   0.59990   0.60232   0.61532
 Alpha virt. eigenvalues --    0.61622   0.63666   0.63754   0.64347   0.65225
 Alpha virt. eigenvalues --    0.65245   0.65966   0.66737   0.67805   0.68293
 Alpha virt. eigenvalues --    0.68805   0.69095   0.70184   0.71002   0.71292
 Alpha virt. eigenvalues --    0.72359   0.72607   0.73321   0.73907   0.73993
 Alpha virt. eigenvalues --    0.74431   0.74923   0.75022   0.75398   0.76037
 Alpha virt. eigenvalues --    0.76190   0.77505   0.77904   0.78587   0.79393
 Alpha virt. eigenvalues --    0.79987   0.80054   0.80618   0.81339   0.81345
 Alpha virt. eigenvalues --    0.82442   0.82736   0.83734   0.84528   0.84728
 Alpha virt. eigenvalues --    0.84853   0.86365   0.86598   0.88145   0.88151
 Alpha virt. eigenvalues --    0.88779   0.88987   0.89852   0.90351   0.90513
 Alpha virt. eigenvalues --    0.91973   0.92464   0.92598   0.93202   0.95303
 Alpha virt. eigenvalues --    0.95373   0.96387   0.96444   0.96827   0.97089
 Alpha virt. eigenvalues --    0.98725   0.99758   0.99914   1.01254   1.02058
 Alpha virt. eigenvalues --    1.02221   1.03639   1.03938   1.04862   1.06457
 Alpha virt. eigenvalues --    1.06705   1.08135   1.08867   1.09394   1.10104
 Alpha virt. eigenvalues --    1.10490   1.11555   1.11848   1.12169   1.12465
 Alpha virt. eigenvalues --    1.14685   1.15060   1.15110   1.15713   1.18327
 Alpha virt. eigenvalues --    1.18427   1.19074   1.19700   1.20355   1.20569
 Alpha virt. eigenvalues --    1.20976   1.22107   1.22435   1.23574   1.23745
 Alpha virt. eigenvalues --    1.25391   1.26030   1.26556   1.27508   1.28864
 Alpha virt. eigenvalues --    1.29068   1.29200   1.29665   1.29944   1.30982
 Alpha virt. eigenvalues --    1.31376   1.31812   1.33085   1.33126   1.33640
 Alpha virt. eigenvalues --    1.34560   1.34667   1.35306   1.37006   1.37114
 Alpha virt. eigenvalues --    1.37488   1.38062   1.38863   1.39565   1.40487
 Alpha virt. eigenvalues --    1.42140   1.42209   1.42357   1.42787   1.43332
 Alpha virt. eigenvalues --    1.44986   1.45399   1.47477   1.48000   1.48265
 Alpha virt. eigenvalues --    1.49646   1.51086   1.53230   1.53412   1.55394
 Alpha virt. eigenvalues --    1.59125   1.60324   1.62483   1.63311   1.63353
 Alpha virt. eigenvalues --    1.64858   1.66875   1.67415   1.69242   1.70842
 Alpha virt. eigenvalues --    1.71918   1.72849   1.73169   1.75742   1.76991
 Alpha virt. eigenvalues --    1.78105   1.78131   1.79820   1.81062   1.81654
 Alpha virt. eigenvalues --    1.82935   1.83143   1.83191   1.85428   1.86001
 Alpha virt. eigenvalues --    1.86490   1.86554   1.87806   1.88521   1.89238
 Alpha virt. eigenvalues --    1.90675   1.91780   1.93650   1.94320   1.94558
 Alpha virt. eigenvalues --    1.95559   1.95584   1.96848   1.97201   1.98206
 Alpha virt. eigenvalues --    1.98291   1.99269   2.00871   2.01262   2.03212
 Alpha virt. eigenvalues --    2.03981   2.04655   2.05295   2.05681   2.07142
 Alpha virt. eigenvalues --    2.07951   2.11061   2.11947   2.12249   2.12893
 Alpha virt. eigenvalues --    2.14437   2.14650   2.16241   2.16586   2.18508
 Alpha virt. eigenvalues --    2.20143   2.20227   2.21226   2.22639   2.26072
 Alpha virt. eigenvalues --    2.26144   2.26482   2.27216   2.28382   2.29023
 Alpha virt. eigenvalues --    2.29687   2.30962   2.31609   2.32343   2.33025
 Alpha virt. eigenvalues --    2.33973   2.34076   2.34523   2.37907   2.38319
 Alpha virt. eigenvalues --    2.39736   2.40042   2.40435   2.41509   2.42356
 Alpha virt. eigenvalues --    2.43453   2.45637   2.47839   2.48068   2.48320
 Alpha virt. eigenvalues --    2.49404   2.49420   2.50813   2.52410   2.53487
 Alpha virt. eigenvalues --    2.54539   2.54929   2.55199   2.55589   2.56811
 Alpha virt. eigenvalues --    2.58081   2.58207   2.58292   2.58981   2.59290
 Alpha virt. eigenvalues --    2.61272   2.62257   2.64312   2.64570   2.65588
 Alpha virt. eigenvalues --    2.65922   2.67592   2.67635   2.69062   2.71149
 Alpha virt. eigenvalues --    2.72321   2.72435   2.72830   2.73689   2.74645
 Alpha virt. eigenvalues --    2.78081   2.79307   2.82076   2.84604   2.85360
 Alpha virt. eigenvalues --    2.86326   2.87361   2.88926   2.92237   2.92919
 Alpha virt. eigenvalues --    2.97238   2.97728   3.00280   3.03236   3.05351
 Alpha virt. eigenvalues --    3.05581   3.07263   3.09490   3.13491   3.19393
 Alpha virt. eigenvalues --    3.20625   3.24057   3.26461   3.27727   3.28548
 Alpha virt. eigenvalues --    3.28881   3.30092   3.36216   3.40905   3.41250
 Alpha virt. eigenvalues --    3.42739   3.43647   3.46016   3.52338   3.52438
 Alpha virt. eigenvalues --    3.55839   3.57145   3.79261   3.79408   3.97064
 Alpha virt. eigenvalues --    3.97288   4.23220   4.27661   4.28057   4.28576
 Alpha virt. eigenvalues --    4.30891   4.31322   4.32097   4.35303   4.36558
 Alpha virt. eigenvalues --    4.37772   4.39087   4.40319   4.43360   4.44474
 Alpha virt. eigenvalues --    4.44514   4.49824   4.51914   4.55025   4.55148
 Alpha virt. eigenvalues --    4.59230   4.67205   4.75201   4.87218   4.87313
 Alpha virt. eigenvalues --    4.98013   5.06707
          Condensed to atoms (all electrons):
              1          2          3          4          5          6
     1  N    7.471070   0.235837   0.084978  -0.018996  -0.024373  -0.121407
     2  C    0.235837   9.396362   1.677853  -0.012669  -4.442791  -1.171510
     3  C    0.084978   1.677853  11.753804   2.442598  -5.083861  -3.504378
     4  C   -0.018996  -0.012669   2.442598  17.098094   0.717325  -5.078194
     5  C   -0.024373  -4.442791  -5.083861   0.717325  17.084842   2.441061
     6  C   -0.121407  -1.171510  -3.504378  -5.078194   2.441061  11.743035
     7  C   -0.168194  -0.294508  -1.176992  -4.448511  -0.009578   1.677420
     8  N   -0.004322  -0.168407  -0.122475  -0.025652  -0.018813   0.086287
     9  O   -0.105783   0.261538  -0.144477  -0.074079  -0.048621   0.172973
    10  O   -0.003256   0.038607   0.173611  -0.048074  -0.074540  -0.144834
    11  H    0.000675   0.007033   0.014001   0.148521   0.037510  -0.081157
    12  H    0.301826  -0.082910  -0.081403   0.037633   0.148610   0.014081
    13  C   -0.075510   0.103883   0.129339  -0.581317  -0.267883  -0.147050
    14  C   -0.042329   0.158384  -0.031472   0.278900  -0.417001  -0.075104
    15  C   -0.087244   0.543506   1.313370   0.725515  -0.901605  -0.862559
    16  C   -0.076288   0.122760   1.140419  -0.498747  -1.467896  -0.578413
    17  H    0.000951   0.000672  -0.024419  -0.032337  -0.025098   0.004962
    18  C    0.015329  -0.088245  -0.915468  -0.102679  -0.108128  -0.019394
    19  H    0.000021   0.000084  -0.001333  -0.004098  -0.000909  -0.000125
    20  C    0.020448  -0.031335  -0.179536   0.049008  -0.080499  -0.024466
    21  H   -0.000022   0.000005  -0.000690   0.002084  -0.000026   0.000020
    22  C    0.083010   0.158805  -0.197734  -0.366505  -0.279257  -0.072252
    23  H    0.002181   0.004983  -0.004224   0.005710   0.003940   0.001736
    24  C   -0.032417   0.032110   0.132384  -0.169403  -0.026345  -0.009116
    25  H   -0.000058   0.000005  -0.000582   0.000054  -0.000074   0.000000
    26  S    0.016222  -0.002984  -0.016196   0.041738   0.015637   0.013996
    27  C   -0.002004  -0.020124  -0.075077  -0.415580   0.281130  -0.028970
    28  C   -0.010291  -0.090097  -0.147252  -0.269510  -0.582518   0.127145
    29  C    0.003309  -0.068907  -0.024616  -0.081050   0.048374  -0.179740
    30  H    0.000000  -0.000105   0.000020  -0.000026   0.002090  -0.000675
    31  C    0.023912  -0.199392  -0.020101  -0.109635  -0.103205  -0.915705
    32  H   -0.000004  -0.000746  -0.000125  -0.000912  -0.004116  -0.001344
    33  C   -0.000392  -0.402887  -0.580515  -1.473373  -0.500560   1.139885
    34  H    0.002075   0.038938   0.004945  -0.025156  -0.032388  -0.024449
    35  C   -0.065444  -0.086902  -0.862481  -0.902245   0.726580   1.311985
    36  C   -0.001203  -0.005639  -0.009081  -0.026359  -0.169342   0.132443
    37  H    0.000000  -0.000005   0.000000  -0.000074   0.000054  -0.000580
    38  C    0.000906  -0.016511  -0.072802  -0.280535  -0.366762  -0.200515
    39  H    0.000012   0.001788   0.001734   0.003953   0.005714  -0.004174
    40  S    0.000209   0.012379   0.013991   0.015762   0.041745  -0.016052
              7          8          9         10         11         12
     1  N   -0.168194  -0.004322  -0.105783  -0.003256   0.000675   0.301826
     2  C   -0.294508  -0.168407   0.261538   0.038607   0.007033  -0.082910
     3  C   -1.176992  -0.122475  -0.144477   0.173611   0.014001  -0.081403
     4  C   -4.448511  -0.025652  -0.074079  -0.048074   0.148521   0.037633
     5  C   -0.009578  -0.018813  -0.048621  -0.074540   0.037510   0.148610
     6  C    1.677420   0.086287   0.172973  -0.144834  -0.081157   0.014081
     7  C    9.400216   0.235914   0.038621   0.261191  -0.082931   0.007074
     8  N    0.235914   7.471375  -0.003251  -0.105812   0.301755   0.000676
     9  O    0.038621  -0.003251   8.469057  -0.000156  -0.000010   0.003366
    10  O    0.261191  -0.105812  -0.000156   8.469008   0.003365  -0.000010
    11  H   -0.082931   0.301755  -0.000010   0.003365   0.397169   0.000000
    12  H    0.007074   0.000676   0.003366  -0.000010   0.000000   0.397097
    13  C   -0.090292  -0.010276  -0.002936   0.004697   0.000018  -0.014628
    14  C   -0.020040  -0.002039  -0.008696  -0.009625   0.000124  -0.027324
    15  C   -0.087507  -0.065605  -0.003712   0.114061   0.000865  -0.033159
    16  C   -0.403579  -0.000376  -0.002725  -0.006848   0.002453  -0.023601
    17  H    0.038904   0.002073   0.000004  -0.005033  -0.000005   0.000005
    18  C   -0.198521   0.023930   0.001833  -0.094468   0.000238   0.000813
    19  H   -0.000748  -0.000004   0.000000   0.000218   0.000000   0.000000
    20  C   -0.068703   0.003323   0.000141  -0.007312   0.000027  -0.000376
    21  H   -0.000104   0.000000   0.000000   0.000004   0.000000   0.000000
    22  C   -0.016283   0.000868   0.002503  -0.001128   0.000004   0.036046
    23  H    0.001791   0.000012   0.000162   0.000000   0.000000   0.002536
    24  C   -0.005731  -0.001200  -0.000749   0.000515   0.000000  -0.002672
    25  H   -0.000005   0.000000   0.000000   0.000000   0.000000   0.000000
    26  S    0.012383   0.000207   0.000224  -0.000222  -0.000001   0.001369
    27  C    0.157651  -0.042230  -0.009665  -0.008682  -0.027369   0.000125
    28  C    0.104657  -0.075482   0.004705  -0.002943  -0.014631   0.000018
    29  C   -0.031089   0.020484  -0.007314   0.000140  -0.000377   0.000027
    30  H    0.000005  -0.000022   0.000004   0.000000   0.000000   0.000000
    31  C   -0.087893   0.015488  -0.094557   0.001823   0.000833   0.000239
    32  H    0.000084   0.000021   0.000218   0.000000   0.000000   0.000000
    33  C    0.125026  -0.075916  -0.007006  -0.002800  -0.023583   0.002460
    34  H    0.000679   0.000948  -0.005033   0.000004   0.000005  -0.000005
    35  C    0.544802  -0.087079   0.114047  -0.003834  -0.033141   0.000870
    36  C    0.032142  -0.032425   0.000518  -0.000749  -0.002677   0.000000
    37  H    0.000005  -0.000058   0.000000   0.000000   0.000000   0.000000
    38  C    0.158935   0.083037  -0.001143   0.002457   0.036177   0.000005
    39  H    0.004973   0.002147   0.000000   0.000163   0.002544   0.000000
    40  S   -0.003104   0.016198  -0.000223   0.000225   0.001375  -0.000001
             13         14         15         16         17         18
     1  N   -0.075510  -0.042329  -0.087244  -0.076288   0.000951   0.015329
     2  C    0.103883   0.158384   0.543506   0.122760   0.000672  -0.088245
     3  C    0.129339  -0.031472   1.313370   1.140419  -0.024419  -0.915468
     4  C   -0.581317   0.278900   0.725515  -0.498747  -0.032337  -0.102679
     5  C   -0.267883  -0.417001  -0.901605  -1.467896  -0.025098  -0.108128
     6  C   -0.147050  -0.075104  -0.862559  -0.578413   0.004962  -0.019394
     7  C   -0.090292  -0.020040  -0.087507  -0.403579   0.038904  -0.198521
     8  N   -0.010276  -0.002039  -0.065605  -0.000376   0.002073   0.023930
     9  O   -0.002936  -0.008696  -0.003712  -0.002725   0.000004   0.001833
    10  O    0.004697  -0.009625   0.114061  -0.006848  -0.005033  -0.094468
    11  H    0.000018   0.000124   0.000865   0.002453  -0.000005   0.000238
    12  H   -0.014628  -0.027324  -0.033159  -0.023601   0.000005   0.000813
    13  C    9.374095   0.112900  -1.289959   1.867138  -0.004752  -0.838088
    14  C    0.112900   8.011359   0.926792  -0.540687   0.035616   0.211610
    15  C   -1.289959   0.926792   8.382151  -0.342206  -0.124469  -1.534257
    16  C    1.867138  -0.540687  -0.342206  11.307843   0.315853  -2.221876
    17  H   -0.004752   0.035616  -0.124469   0.315853   0.523005   0.105296
    18  C   -0.838088   0.211610  -1.534257  -2.221876   0.105296   9.536496
    19  H    0.023762   0.006305   0.007437  -0.060354  -0.004898   0.343680
    20  C   -1.643319  -0.041713   0.429318  -2.517487   0.016854   1.518021
    21  H    0.041102   0.051776   0.022082   0.041214  -0.000155  -0.008558
    22  C   -0.002907  -1.203190  -0.236426  -0.418414   0.006715   0.575408
    23  H    0.003609  -0.054169  -0.015794  -0.012594  -0.000003   0.003877
    24  C   -0.629637  -1.306632  -0.921699   0.608105   0.001014   0.023154
    25  H    0.011344   0.018612   0.004691   0.000094   0.000000   0.002716
    26  S   -0.082378   0.369630   0.165052  -0.030055   0.000224  -0.075653
    27  C   -0.001378  -0.000761  -0.025634   0.000271  -0.000170   0.003184
    28  C   -0.000015  -0.001380  -0.001650  -0.002459  -0.000026   0.000099
    29  C    0.000012   0.000136  -0.002447  -0.000588   0.000002  -0.000046
    30  H    0.000000   0.000000   0.000000   0.000000   0.000000   0.000000
    31  C    0.000098   0.003185  -0.009908   0.004162   0.000002   0.000765
    32  H    0.000000   0.000000  -0.000005   0.000001   0.000000   0.000000
    33  C   -0.002464   0.000276  -0.099451  -0.017246  -0.000101   0.004184
    34  H   -0.000026  -0.000170  -0.001117  -0.000102   0.000000   0.000002
    35  C   -0.001643  -0.025649  -0.019726  -0.099260  -0.001116  -0.009863
    36  C   -0.000016  -0.000065  -0.000110   0.000576  -0.000001   0.000104
    37  H    0.000000   0.000000   0.000000   0.000000   0.000000   0.000000
    38  C    0.000169  -0.000567   0.001281  -0.013001   0.000106  -0.003501
    39  H   -0.000001   0.000006   0.000011   0.000021   0.000000  -0.000003
    40  S    0.000005   0.000115   0.000627  -0.000182   0.000005  -0.000142
             19         20         21         22         23         24
     1  N    0.000021   0.020448  -0.000022   0.083010   0.002181  -0.032417
     2  C    0.000084  -0.031335   0.000005   0.158805   0.004983   0.032110
     3  C   -0.001333  -0.179536  -0.000690  -0.197734  -0.004224   0.132384
     4  C   -0.004098   0.049008   0.002084  -0.366505   0.005710  -0.169403
     5  C   -0.000909  -0.080499  -0.000026  -0.279257   0.003940  -0.026345
     6  C   -0.000125  -0.024466   0.000020  -0.072252   0.001736  -0.009116
     7  C   -0.000748  -0.068703  -0.000104  -0.016283   0.001791  -0.005731
     8  N   -0.000004   0.003323   0.000000   0.000868   0.000012  -0.001200
     9  O    0.000000   0.000141   0.000000   0.002503   0.000162  -0.000749
    10  O    0.000218  -0.007312   0.000004  -0.001128   0.000000   0.000515
    11  H    0.000000   0.000027   0.000000   0.000004   0.000000   0.000000
    12  H    0.000000  -0.000376   0.000000   0.036046   0.002536  -0.002672
    13  C    0.023762  -1.643319   0.041102  -0.002907   0.003609  -0.629637
    14  C    0.006305  -0.041713   0.051776  -1.203190  -0.054169  -1.306632
    15  C    0.007437   0.429318   0.022082  -0.236426  -0.015794  -0.921699
    16  C   -0.060354  -2.517487   0.041214  -0.418414  -0.012594   0.608105
    17  H   -0.004898   0.016854  -0.000155   0.006715  -0.000003   0.001014
    18  C    0.343680   1.518021  -0.008558   0.575408   0.003877   0.023154
    19  H    0.555866   0.004644  -0.004552   0.001512   0.000000  -0.004991
    20  C    0.004644   8.575124   0.241879   0.019022   0.000823   0.038058
    21  H   -0.004552   0.241879   0.567863   0.002969   0.000002  -0.095065
    22  C    0.001512   0.019022   0.002969   8.396443   0.388545  -0.891600
    23  H    0.000000   0.000823   0.000002   0.388545   0.500642   0.010545
    24  C   -0.004991   0.038058  -0.095065  -0.891600   0.010545   8.686430
    25  H   -0.000002  -0.010604   0.001976   0.019650  -0.000049   0.311313
    26  S    0.000164  -0.023545   0.001879  -0.068894  -0.020380  -0.059562
    27  C    0.000000   0.000136   0.000000  -0.000570   0.000006  -0.000065
    28  C    0.000000   0.000012   0.000000   0.000170  -0.000001  -0.000016
    29  C    0.000000  -0.000010   0.000000  -0.000509   0.000000   0.000006
    30  H    0.000000   0.000000   0.000000   0.000000   0.000000   0.000000
    31  C    0.000000  -0.000046   0.000000  -0.003505  -0.000003   0.000104
    32  H    0.000000   0.000000   0.000000   0.000000   0.000000   0.000000
    33  C    0.000001  -0.000588   0.000000  -0.013000   0.000022   0.000576
    34  H    0.000000   0.000002   0.000000   0.000106   0.000000  -0.000001
    35  C   -0.000005  -0.002438   0.000000   0.001339   0.000011  -0.000113
    36  C    0.000000   0.000007   0.000000   0.000049   0.000000  -0.000002
    37  H    0.000000   0.000000   0.000000   0.000000   0.000000   0.000000
    38  C    0.000000  -0.000508   0.000000   0.000711   0.000001   0.000049
    39  H    0.000000   0.000000   0.000000   0.000001   0.000000   0.000000
    40  S    0.000000  -0.000016   0.000000   0.000087   0.000000   0.000001
             25         26         27         28         29         30
     1  N   -0.000058   0.016222  -0.002004  -0.010291   0.003309   0.000000
     2  C    0.000005  -0.002984  -0.020124  -0.090097  -0.068907  -0.000105
     3  C   -0.000582  -0.016196  -0.075077  -0.147252  -0.024616   0.000020
     4  C    0.000054   0.041738  -0.415580  -0.269510  -0.081050  -0.000026
     5  C   -0.000074   0.015637   0.281130  -0.582518   0.048374   0.002090
     6  C    0.000000   0.013996  -0.028970   0.127145  -0.179740  -0.000675
     7  C   -0.000005   0.012383   0.157651   0.104657  -0.031089   0.000005
     8  N    0.000000   0.000207  -0.042230  -0.075482   0.020484  -0.000022
     9  O    0.000000   0.000224  -0.009665   0.004705  -0.007314   0.000004
    10  O    0.000000  -0.000222  -0.008682  -0.002943   0.000140   0.000000
    11  H    0.000000  -0.000001  -0.027369  -0.014631  -0.000377   0.000000
    12  H    0.000000   0.001369   0.000125   0.000018   0.000027   0.000000
    13  C    0.011344  -0.082378  -0.001378  -0.000015   0.000012   0.000000
    14  C    0.018612   0.369630  -0.000761  -0.001380   0.000136   0.000000
    15  C    0.004691   0.165052  -0.025634  -0.001650  -0.002447   0.000000
    16  C    0.000094  -0.030055   0.000271  -0.002459  -0.000588   0.000000
    17  H    0.000000   0.000224  -0.000170  -0.000026   0.000002   0.000000
    18  C    0.002716  -0.075653   0.003184   0.000099  -0.000046   0.000000
    19  H   -0.000002   0.000164   0.000000   0.000000   0.000000   0.000000
    20  C   -0.010604  -0.023545   0.000136   0.000012  -0.000010   0.000000
    21  H    0.001976   0.001879   0.000000   0.000000   0.000000   0.000000
    22  C    0.019650  -0.068894  -0.000570   0.000170  -0.000509   0.000000
    23  H   -0.000049  -0.020380   0.000006  -0.000001   0.000000   0.000000
    24  C    0.311313  -0.059562  -0.000065  -0.000016   0.000006   0.000000
    25  H    0.505229  -0.034175   0.000000   0.000000   0.000000   0.000000
    26  S   -0.034175  15.713849   0.000115   0.000005  -0.000016   0.000000
    27  C    0.000000   0.000115   8.020195   0.107823  -0.042857   0.051788
    28  C    0.000000   0.000005   0.107823   9.379383  -1.644480   0.041145
    29  C    0.000000  -0.000016  -0.042857  -1.644480   8.576720   0.241764
    30  H    0.000000   0.000000   0.051788   0.041145   0.241764   0.567863
    31  C    0.000000  -0.000142   0.210235  -0.838062   1.520516  -0.008648
    32  H    0.000000   0.000000   0.006306   0.023724   0.004693  -0.004552
    33  C    0.000000  -0.000181  -0.541419   1.870300  -2.518572   0.041298
    34  H    0.000000   0.000005   0.035664  -0.004787   0.016862  -0.000155
    35  C    0.000000   0.000629   0.928042  -1.291215   0.428675   0.022118
    36  C    0.000000   0.000001  -1.305572  -0.630776   0.037286  -0.095039
    37  H    0.000000   0.000000   0.018615   0.011257  -0.010602   0.001977
    38  C    0.000000   0.000087  -1.210904   0.001487   0.020761   0.002949
    39  H    0.000000   0.000000  -0.054234   0.003609   0.000820   0.000002
    40  S    0.000000   0.000004   0.370347  -0.082693  -0.023692   0.001879
             31         32         33         34         35         36
     1  N    0.023912  -0.000004  -0.000392   0.002075  -0.065444  -0.001203
     2  C   -0.199392  -0.000746  -0.402887   0.038938  -0.086902  -0.005639
     3  C   -0.020101  -0.000125  -0.580515   0.004945  -0.862481  -0.009081
     4  C   -0.109635  -0.000912  -1.473373  -0.025156  -0.902245  -0.026359
     5  C   -0.103205  -0.004116  -0.500560  -0.032388   0.726580  -0.169342
     6  C   -0.915705  -0.001344   1.139885  -0.024449   1.311985   0.132443
     7  C   -0.087893   0.000084   0.125026   0.000679   0.544802   0.032142
     8  N    0.015488   0.000021  -0.075916   0.000948  -0.087079  -0.032425
     9  O   -0.094557   0.000218  -0.007006  -0.005033   0.114047   0.000518
    10  O    0.001823   0.000000  -0.002800   0.000004  -0.003834  -0.000749
    11  H    0.000833   0.000000  -0.023583   0.000005  -0.033141  -0.002677
    12  H    0.000239   0.000000   0.002460  -0.000005   0.000870   0.000000
    13  C    0.000098   0.000000  -0.002464  -0.000026  -0.001643  -0.000016
    14  C    0.003185   0.000000   0.000276  -0.000170  -0.025649  -0.000065
    15  C   -0.009908  -0.000005  -0.099451  -0.001117  -0.019726  -0.000110
    16  C    0.004162   0.000001  -0.017246  -0.000102  -0.099260   0.000576
    17  H    0.000002   0.000000  -0.000101   0.000000  -0.001116  -0.000001
    18  C    0.000765   0.000000   0.004184   0.000002  -0.009863   0.000104
[...]
 4533,-0.00000762,0.00009653,0.00000997,-0.00001034,0.00002019,0.000004
 57,0.00007964,0.00005670,0.00005483,0.00000676,-0.00001371,-0.00000607
 ,0.00001536,-0.00008955,-0.00003806,0.00001055,0.00000339,-0.00000052,
 -0.00000537,0.00003729,0.00003180,-0.00001001,-0.00000552,-0.00001624,
 0.00002143,-0.00004010,-0.00001660,-0.00000047,0.00000076,-0.00000345,
 -0.00002199,0.00004539,0.00001737,-0.01195795,0.02559058,-0.00579389,-
 0.09186192,-0.15125759,0.05993880,-0.03308413,-0.03632761,0.02336635,-
 0.00067565,0.00116144,-0.00139325,0.01979259,-0.00079775,-0.00075011,-
 0.00063737,-0.00040703,0.00034705,-0.00980992,0.00853955,-0.00258927,-
 0.00006727,0.00028413,0.00010909,-0.00133474,-0.00812426,0.00339508,-0
 .02270719,0.39787832,-0.00002043,-0.00002225,0.00002846,0.00013291,0.0
 0016497,0.00002871,0.00015963,0.00009504,-0.00000616,-0.00027043,0.000
 01266,0.00003160,-0.00006950,-0.00014589,-0.00001516,-0.00010483,0.000
 07100,-0.00011203,0.00009826,-0.00017629,-0.00004895,-0.00003016,-0.00
 002732,-0.00004035,-0.00002391,-0.00013728,-0.00002519,-0.00002780,0.0
 0015038,0.00002701,0.00021198,-0.00003367,-0.00006056,0.00001603,0.000
 00396,0.00000376,-0.00001578,-0.00000111,-0.00000299,0.00000119,0.0000
 3889,0.00001123,-0.00004439,0.00007098,0.00002204,0.00000375,-0.000047
 55,-0.00000929,-0.00000074,-0.00001405,-0.00000055,-0.00003573,-0.0000
 2603,-0.00002143,-0.00000479,0.00000765,0.00000169,-0.00000618,0.00004
 163,0.00001391,-0.00000505,-0.00000104,-0.00000016,-0.00000162,-0.0000
 2201,-0.00001071,0.00000505,0.00000330,0.00000315,-0.00001125,0.000016
 47,0.00000623,0.00000082,0.00000015,0.00000039,0.00001644,-0.00001679,
 -0.00000635,0.01433093,-0.01097795,0.01035462,0.07224988,0.06155094,-0
 .09725105,0.01584509,0.02109019,-0.00765877,0.00001302,-0.00163387,-0.
 00147684,-0.01097583,0.00122195,0.00485045,0.00023520,0.00029826,0.000
 28695,0.00584615,-0.00544567,0.00087610,0.00001767,-0.00017913,-0.0000
 4587,0.00155050,0.00457856,-0.00086489,-0.08715169,-0.15185347,0.16835
 739,-0.00000790,-0.00001180,-0.00000263,0.00000279,-0.00002593,0.00001
 002,0.00000535,0.00001334,-0.00000170,-0.00004120,-0.00002768,-0.00002
 322,-0.00001120,0.00010309,0.00000182,-0.00018683,-0.00018665,0.000163
 14,0.00002400,0.00000486,0.00000047,-0.00003090,-0.00003485,-0.0000072
 2,-0.00001758,0.00001215,-0.00000758,-0.00000745,0.00000218,0.00000033
 ,-0.00000889,-0.00001244,0.00000192,-0.00000104,0.00000056,0.00000039,
 0.00000054,-0.00000092,0.00000107,0.00000057,0.00000031,0.00000009,-0.
 00000480,-0.00000289,0.00000274,0.00000021,-0.00000075,-0.00000006,0.0
 0000052,0.00000038,-0.00000009,0.00000032,0.00000104,0.00000090,0.0000
 0003,-0.00000029,-0.00000006,0.00000061,-0.00000092,-0.00000113,0.0000
 0017,0.,0.00000011,0.00000002,0.00000016,-0.00000023,-0.00000016,-0.00
 000006,0.00000050,0.00000015,-0.00000032,-0.00000067,-0.00000007,0.,-0
 .00000015,-0.00000106,0.00000081,0.00000041,-0.00148815,-0.00230667,0.
 00197229,-0.01044143,0.00820127,-0.00226944,0.00085224,0.00082476,-0.0
 0096118,0.00009603,-0.00055639,0.00029097,-0.00023307,-0.00008763,0.00
 003331,-0.00002126,-0.00001472,0.00004125,0.00010235,-0.00011444,-0.00
 001008,0.00002802,-0.00002816,0.00000981,-0.00033162,0.00096201,-0.000
 23421,-0.34381117,0.07067833,0.01452827,0.35579781,0.00002130,-0.00000
 517,0.00000364,-0.00000924,0.00003830,0.00002083,-0.00000910,0.0000253
 1,-0.00000652,-0.00004268,0.00000230,-0.00004796,-0.00002812,0.0000810
 6,-0.00003396,-0.00011031,-0.00028563,0.00031989,-0.00007064,-0.000010
 09,0.00000885,0.00002692,0.00005582,-0.00013694,0.00001817,-0.00003226
 ,-0.00001162,0.00001765,0.00000491,-0.00001362,0.00001567,-0.00001409,
 0.00011092,-0.00000144,0.00000058,0.00000040,-0.00000039,0.00000067,-0
 .00000060,0.00000115,0.00000360,0.00000192,-0.00000296,0.00000185,0.00
 001128,-0.00000309,-0.00000254,-0.00000107,-0.00000302,-0.00000146,0.0
 0000323,-0.00000038,-0.00000001,-0.00000301,-0.00000050,-0.00000006,0.
 00000059,-0.00000166,0.00000286,0.00000125,0.00000022,-0.00000032,0.00
 000052,0.00000023,-0.00000168,-0.00000140,-0.00000033,-0.00000031,0.00
 000101,0.00000061,0.00000075,-0.00000018,0.,-0.00000024,0.00000004,-0.
 00000068,-0.00000153,-0.00000052,-0.00234631,-0.00092917,0.00277452,-0
 .01525052,0.00987824,-0.00176135,-0.00014870,0.00047924,-0.00189394,0.
 00043105,-0.00025291,0.00022599,0.00045997,-0.00009929,-0.00008970,0.0
 0000368,0.00003447,0.00011678,-0.00013443,0.00022480,-0.00025783,0.000
 01155,-0.00002061,0.00001822,-0.00071137,0.00076071,0.00017634,0.07154
 322,-0.06239816,0.00992627,-0.07580071,0.06055488,0.00003192,-0.000049
 50,0.00000029,-0.00005643,0.00003096,0.00002687,0.00004602,0.00003671,
 -0.00000898,-0.00008810,-0.00002049,-0.00008949,0.00003758,-0.00009759
 ,-0.00006635,0.00015676,0.00050880,0.00032585,0.00011993,-0.00004242,0
 .00003934,-0.00027547,-0.00002301,0.00011279,0.00002917,-0.00003515,-0
 .00002099,-0.00001506,-0.00001583,-0.00000802,0.00009369,-0.00003734,-
 0.00012089,0.00000421,0.00000032,0.00000687,-0.00000008,-0.00000087,-0
 .00000103,0.00000286,0.00000485,0.00000186,-0.00000292,0.00001088,0.00
 001923,-0.00000004,-0.00000674,0.00000108,0.00000147,0.00000008,0.0000
 0068,-0.00000570,-0.00000289,-0.00000658,0.00000034,-0.00000005,0.0000
 0053,-0.00000105,0.00000680,0.00000393,-0.00000034,-0.00000053,0.00000
 053,0.00000123,-0.00000243,-0.00000307,-0.00000002,0.00000023,0.000001
 72,0.00000014,0.00000346,0.00000037,0.00000016,-0.00000004,0.00000026,
 -0.00000120,-0.00000520,-0.00000147,0.00160825,0.00342556,0.00222160,0
 .01040352,-0.00530108,0.00232309,-0.00059524,-0.00177582,-0.00256676,-
 0.00018702,0.00038097,0.00020767,-0.00026829,0.00001635,-0.00011377,0.
 00002411,0.00009012,0.00021325,-0.00001938,-0.00027569,-0.00023678,-0.
 00001093,0.00002283,0.00001662,0.00056503,-0.00019430,0.00066078,0.013
 97696,0.00962509,-0.02588487,-0.01421561,-0.00985433,0.02385798,-0.000
 00342,0.00008272,-0.00000098,0.00000131,0.00020286,-0.00001643,-0.0002
 3750,-0.00015425,0.00000308,0.00019358,-0.00009981,-0.00008331,-0.0005
 0985,-0.00020837,0.00011488,0.00279009,-0.00031331,0.00020623,0.000163
 13,-0.00048829,0.00034975,-0.00277184,0.00043646,0.00071837,0.00005274
 ,-0.00010347,-0.00000421,0.00004325,0.00009486,-0.00006100,-0.00099255
 ,-0.00013850,0.00074922,-0.00000267,-0.00000354,0.00000370,0.00000577,
 0.00000305,-0.00000045,-0.00001129,-0.00002208,-0.00000165,0.00007279,
 -0.00005900,-0.00001778,-0.00001990,0.00004957,0.00000441,-0.00000388,
 0.00000287,0.00000146,0.00003226,0.00000787,0.00001123,0.00000144,-0.0
 0000277,-0.00000072,-0.00000966,-0.00001786,-0.00000775,0.00000228,0.0
 0000042,-0.00000054,0.00000351,0.00001317,0.00000338,-0.00000145,-0.00
 000063,-0.00000294,0.00000587,-0.00000536,0.00000095,0.00000005,0.0000
 0024,-0.00000119,-0.00000752,0.00000222,0.00000044,-0.09992547,-0.0042
 9870,0.00682315,0.00647270,0.01745781,-0.00751117,-0.00673752,0.000171
 79,0.00082913,0.00006728,0.00137957,-0.00065319,0.00281646,-0.00195166
 ,0.00040063,0.00013949,0.00009821,-0.00001992,-0.00583070,0.00293375,-
 0.00006526,0.00027134,-0.00111385,0.00032636,-0.00156625,-0.02879419,0
 .01489984,-0.04684253,0.01682787,0.00017292,0.00092432,0.00081804,-0.0
 0080239,0.53593890,0.00023537,0.00025113,0.00001776,0.00003933,0.00198
 843,-0.00021056,-0.00069674,-0.00020635,-0.00013496,0.00079778,-0.0005
 1972,0.00011530,-0.00291339,-0.00107506,0.00017989,0.00739640,-0.00223
 785,-0.00107960,0.00039300,0.00003258,0.00032132,-0.00114685,0.0016882
 2,0.00132222,0.00067821,-0.00116643,0.00017087,0.00006022,0.00016041,0
 .00005536,-0.00165239,-0.00033863,-0.00102966,0.00000613,0.00001564,-0
 .00000110,-0.00001587,0.00000974,-0.00000660,-0.00004660,0.00005528,0.
 00002348,0.00025372,-0.00003645,0.00001779,-0.00011465,0.00008537,0.00
 003001,-0.00002372,-0.00002010,0.00000318,0.00005535,-0.00006170,-0.00
 005350,-0.00000986,0.00001540,0.00000440,-0.00009124,0.00005990,0.0000
 2337,-0.00000653,-0.00000483,-0.00000133,0.00001353,-0.00000830,-0.000
 00387,0.00000695,0.00000364,0.00000831,-0.00000531,0.00003726,0.000021
 95,0.00000010,-0.00000164,0.00000243,0.00001265,-0.00005978,-0.0000325
 0,-0.01303034,-0.27668132,0.11439728,0.04784449,-0.02288615,0.00962913
 ,-0.00075477,-0.00471887,0.00248785,-0.00023115,-0.00048895,0.00023022
 ,0.01148430,-0.00342172,-0.00066525,0.00012577,0.00013609,0.00001104,-
 0.00728075,0.01472599,-0.00434623,-0.00019874,0.00020851,0.00037139,-0
 .02431283,-0.02498952,0.01727957,0.01546885,-0.02305157,0.01477876,-0.
 00060672,-0.00565366,0.00233628,-0.13984419,0.55965895,0.00005693,-0.0
 0001854,0.00000299,-0.00008802,-0.00154929,0.00003916,0.00026288,0.000
 20461,0.00006280,-0.00018407,0.00047840,0.00009356,0.00204078,0.001184
 97,-0.00028982,-0.00372599,-0.00094967,-0.00062411,-0.00057299,0.00054
 362,-0.00040771,0.00204873,-0.00084958,-0.00094978,-0.00045173,0.00087
 241,-0.00002347,0.00013043,-0.00004974,0.00005951,0.00021236,0.0000928
 0,0.00072286,-0.00000804,-0.00000882,-0.00002034,0.00001133,0.00001423
 ,0.00000163,0.00002750,-0.00003426,-0.00000273,-0.00012425,0.00002739,
 -0.00001236,0.00002513,-0.00004243,-0.00002103,-0.00001431,0.00000515,
 0.00000535,-0.00000580,0.00004164,0.00002644,0.00000104,-0.00000596,-0
 .00000318,0.00003817,-0.00005158,-0.00001539,0.00000457,0.00000200,0.0
 0000058,-0.00000342,0.00000356,0.00000244,-0.00000549,-0.00000387,-0.0
 0001530,0.00000304,-0.00003220,-0.00001092,0.00000018,0.00000141,-0.00
 000303,0.00000648,0.00004685,0.00002587,0.01261938,0.11851016,-0.11704
 354,-0.02149424,0.01442368,0.00269514,0.00098495,0.00238047,0.00009743
 ,0.00011070,0.00003605,-0.00012260,-0.00531328,0.00154283,-0.00037839,
 -0.00008811,-0.00013099,-0.00009259,0.00411200,-0.00556045,0.00520699,
 0.00009318,0.00035138,0.00039857,0.01072054,0.01659478,-0.00648618,0.0
 0047660,0.01204247,0.00481015,0.00009814,0.00311377,-0.00098039,0.0242
 4899,-0.24361277,0.20908700,0.00004013,0.00009423,0.00001631,-0.000035
 22,-0.00024687,0.00001839,-0.00012346,-0.00006415,-0.00001944,0.000016
 19,0.00020863,-0.00007050,0.00017349,0.00027412,-0.00007491,0.00038223
 ,-0.00139958,0.00034755,-0.00085286,-0.00031908,0.00047856,-0.00206183
 ,0.00135021,0.00089420,-0.00003136,0.00015316,-0.00001340,0.00014818,0
 .00001446,-0.00011832,-0.00107241,-0.00037837,0.00212545,-0.00001063,-
 0.00001174,-0.00000375,0.00000633,0.00000382,0.00000484,-0.00000123,-0
 .00001625,-0.00000621,0.00001585,-0.00002554,-0.00000754,-0.00000629,0
 .00002208,-0.00000287,-0.00001434,0.00000117,0.00000930,0.00001952,0.0
 0001690,0.00001133,0.00000097,-0.00000353,-0.00000002,0.00000219,-0.00
 002010,-0.00000958,0.00000334,0.00000044,0.00000087,-0.00000143,0.0000
 0701,0.00000542,-0.00000335,-0.00000376,-0.00000259,0.00000620,-0.0000
 1007,-0.00000495,-0.00000018,-0.00000033,0.00000001,-0.00000333,0.0000
 1098,0.00000453,0.00909526,-0.00417217,0.00151405,0.00051430,-0.001340
 97,0.00075314,0.00033764,-0.00023956,0.00008744,0.00006938,-0.00012293
 ,0.00012106,0.00028675,-0.00000585,-0.00012365,0.00000062,0.00000137,0
 .00000800,-0.00028538,0.00024533,-0.00012827,0.00001626,0.00003592,0.0
 0005571,-0.00043308,0.00032385,-0.00041254,-0.00444985,-0.00231497,0.0
 0164474,0.00028221,0.00124020,-0.00021736,-0.20737291,0.14512425,-0.06
 390298,0.21867881,0.00009562,-0.00000271,0.00001649,-0.00007711,-0.000
 20858,0.00002833,-0.00005354,0.00006569,0.00004299,0.00003730,0.000099
 03,0.00002224,0.00024389,0.00022192,0.00000760,-0.00043631,-0.00095825
 ,0.00037379,-0.00066350,0.00065967,-0.00008716,0.00088892,0.00023760,-
 0.00116367,-0.00001446,0.00010008,-0.00002834,0.00006796,-0.00046760,0
 .00002049,0.00077598,0.00105318,0.00009146,-0.00000688,-0.00000682,-0.
 00000810,0.00000422,-0.00000199,0.00000377,0.00000361,-0.00000869,-0.0
 0000392,-0.00000027,-0.00001101,-0.00001481,0.00000134,0.00000739,0.00
 000621,-0.00000250,0.00000632,0.00000173,0.00000484,0.00001116,0.00000
 679,0.00000327,-0.00000381,-0.00000214,0.00000732,-0.00001040,-0.00000
 507,0.00000247,0.00000050,0.00000017,-0.00000074,0.00000369,0.00000393
 ,-0.00000373,-0.00000296,-0.00000083,0.00000659,-0.00000540,-0.0000033
 1,0.00000002,-0.00000033,-0.00000022,-0.00000783,0.00000457,0.00000060
 ,0.01896505,-0.00722462,0.00247602,-0.00164912,-0.00303168,0.00427596,
 0.00159286,0.00014502,0.00004658,-0.00000782,-0.00034417,0.00031799,-0
 .00021994,-0.00000987,-0.00020193,-0.00002714,-0.00000567,0.00001387,0
 .00013996,-0.00036266,0.00000316,0.00002271,0.00000848,0.00015508,0.00
 036874,0.00060423,-0.00204486,-0.00360095,-0.00056597,0.00067507,0.000
 21756,0.00150619,0.00100981,0.14181752,-0.17106696,0.07280221,-0.15173
 802,0.17433005,-0.00005110,-0.00026573,-0.00001908,-0.00007779,0.00029
 385,-0.00001347,0.00024635,0.00008532,0.00002031,-0.00047594,-0.000290
 60,-0.00005807,-0.00020024,-0.00046974,0.00010149,-0.00047726,0.002007
 30,-0.00041152,0.00134499,-0.00061123,0.00015452,-0.00054761,-0.000396
 01,0.00025408,0.00006708,-0.00020256,-0.00000287,-0.00034215,0.0002512
 7,-0.00003524,0.00269803,0.00014310,-0.00247616,0.00001710,0.00000104,
 0.00002399,-0.00000967,-0.00001158,-0.00000357,0.00000180,0.00002899,0
 .00000700,-0.00002249,0.00002965,0.00000179,0.00001466,-0.00002374,0.0
 0000929,0.00003096,0.00000095,-0.00000737,-0.00003199,-0.00001948,-0.0
 0002056,0.00000102,0.00000225,0.00000313,-0.00000398,0.00003204,0.0000
 1052,-0.00000435,-0.00000166,0.00000074,0.00000292,-0.00000831,-0.0000
 1523,0.00000259,0.00000084,0.00001137,-0.00000521,0.00001619,0.0000031
 8,-0.00000053,-0.00000100,0.00000172,-0.00000500,-0.00002176,-0.000008
 77,-0.01030109,0.00219443,0.00028800,0.00107997,0.00329659,0.00274735,
 -0.00066558,0.00032936,0.00063052,0.00004733,0.00032806,0.00017988,-0.
 00015763,-0.00016548,-0.00035014,0.00001279,0.00000420,-0.00000506,0.0
 0014143,-0.00018730,0.00004581,0.00000252,0.00007386,0.00020633,0.0003
 7968,-0.00163015,-0.00239341,0.00284226,0.00101020,-0.00100790,0.00036
 384,0.00039318,0.00259418,-0.06501468,0.07515138,-0.05518573,0.0633807
 9,-0.07454520,0.05530361,-0.00028446,0.00020822,-0.00004013,0.00037579
 ,-0.00148058,0.00008980,0.00006718,-0.00013813,0.00001836,0.00007641,0
 .00035709,-0.00001518,0.00108608,0.00083465,-0.00019241,-0.00174655,-0
 .00091205,0.00028869,-0.00032918,-0.00022347,0.00009049,0.00012513,0.0
 0040153,0.00001594,-0.00069624,0.00091432,-0.00014138,0.00004052,0.000
 32805,-0.00003754,-0.00103876,-0.00027003,0.00043773,-0.00000630,-0.00
 000598,0.00000863,0.00000926,0.00000388,0.00000574,0.00001411,-0.00003
 322,-0.00001187,-0.00008230,0.00000623,-0.00001156,0.00003011,-0.00001
 732,-0.00001122,-0.00000442,0.00000184,0.00000696,0.00000122,0.0000366
 9,0.00002183,-0.00000089,-0.00000632,0.00000180,0.00002977,-0.00003976
 ,-0.00001653,0.00000375,0.00000136,0.00000257,-0.00000744,0.00001251,-
 0.00000624,-0.00000343,-0.00000776,0.00000500,0.00000219,-0.00002182,-
 0.00001615,-0.00000089,-0.00000074,0.00000119,-0.00000211,0.00003668,0
 .00002215,-0.03056344,-0.04178400,0.02735369,-0.00714248,0.00117184,0.
 00149315,-0.00139343,-0.00095729,0.00190034,0.00002726,0.00008811,-0.0
 0011169,-0.00315628,0.00277687,-0.00058465,-0.00012445,-0.00030949,-0.
 00008441,-0.00103707,-0.00465838,0.00239967,0.00043640,-0.00012552,0.0
 0002783,0.00968172,0.00405939,-0.00311886,-0.06387106,0.06651677,-0.02
 828027,-0.00147251,0.02006693,-0.01034072,-0.17715163,-0.03701378,0.03
 764868,-0.01333672,-0.00675790,0.00571621,0.29144508,-0.00004425,0.000
 10954,0.00000661,0.00058334,0.00001824,0.00010903,0.00040573,0.0002682
 8,-0.00001273,-0.00055151,0.00033393,0.00008848,0.00036319,-0.00019380
 ,-0.00006239,0.00018231,-0.00108134,-0.00044750,-0.00072607,-0.0000658
 6,-0.00008597,0.00102202,0.00035064,-0.00072677,-0.00034322,-0.0001641
 7,-0.00013116,0.00010778,0.00025252,-0.00002486,-0.00037996,0.00018830
 ,0.00071641,0.00004374,0.00001809,0.00001988,-0.00003019,-0.00000320,-
 0.00002023,0.00001614,0.00012051,0.00003462,-0.00013904,0.00024078,0.0
 0006932,0.00001335,-0.00016559,-0.00003328,-0.00001657,-0.00003457,0.0
 0000988,-0.00012239,-0.00005908,-0.00007079,-0.00001182,0.00001802,0.0
 0000688,-0.00000752,0.00011901,0.00005473,-0.00001104,-0.00000358,0.00
 000146,0.00000215,-0.00005960,-0.00004665,0.00001100,0.00000456,0.0000
 2179,-0.00002574,0.00004559,0.00001713,0.00000089,-0.00000156,0.000005
 18,0.00003658,-0.00004761,-0.00001569,-0.01515605,-0.03167165,0.021160
 27,-0.02727759,-0.05462407,0.03480429,-0.00024582,0.01358073,-0.002645
 36,0.00041936,-0.00020732,-0.00021024,-0.01174675,-0.00198115,0.002824
 88,-0.00054269,-0.00031475,-0.00034869,0.00703475,-0.00825880,0.003020
 99,0.00013665,-0.00048834,-0.00044147,0.00744262,0.00511121,0.00028931
 ,0.03529321,-0.15078066,0.05596422,-0.00120185,-0.00394732,0.00023121,
 -0.00478104,-0.04043698,0.00758335,0.01330571,0.00523535,-0.00682250,-
 0.00305942,0.26857569,0.00000345,0.00000936,-0.00002992,-0.00023659,0.
 00033187,-0.00008229,-0.00032014,-0.00018553,0.00001058,0.00048342,-0.
 00026779,0.00002854,-0.00063609,-0.00010162,0.00005046,0.00045734,0.00
 036831,-0.00000121,0.00012756,0.00038394,-0.00002740,0.00029205,-0.000
 65227,0.00020021,0.00023114,-0.00011820,0.00008953,-0.00002592,-0.0003
 0252,-0.00001146,0.00014317,0.00021827,-0.00015721,-0.00002388,-0.0000
 0100,-0.00000678,0.00001567,-0.00000210,0.00000753,-0.00001408,-0.0000
 5824,-0.00002324,0.00010196,-0.00013436,-0.00003917,-0.00000984,0.0000
 9768,0.00002366,0.00000654,0.00001863,-0.00000505,0.00006682,0.0000252
 9,0.00003428,0.00000666,-0.00000922,-0.00000295,-0.00000165,-0.0000544
 9,-0.00002421,0.00000581,0.00000209,-0.00000105,-0.00000046,0.00003248
 ,0.00002583,-0.00000451,-0.00000063,-0.00000872,0.00001329,-0.00001729
 ,-0.00000649,-0.00000048,0.00000056,-0.00000148,-0.00002212,0.00001560
 ,0.00000384,0.01368403,0.02548636,-0.00711191,0.01461518,0.03076193,-0
 .00833428,0.00155447,-0.00358917,0.00754006,-0.00026014,-0.00004636,-0
 .00022658,0.00605419,0.00086989,-0.00090688,0.00019634,-0.00020931,-0.
 00087154,-0.00294674,0.00488669,-0.00130154,-0.00022315,-0.00006348,-0
 .00087581,-0.00484005,0.00018144,0.00663646,-0.01220564,0.05223711,-0.
 05516383,0.00021347,-0.00311489,-0.00252794,0.02439738,0.01218736,-0.0
 4064994,-0.00636284,-0.00429276,-0.00058464,-0.03453560,-0.11489359,0.
 10433257||0.00000050,0.00000468,0.00001253,0.00000986,-0.00000959,-0.0
 0002175,-0.00000063,-0.00000213,-0.00001878,0.00000160,-0.00000045,0.0
 0000107,0.00000092,-0.00000090,-0.00000086,-0.00000811,0.00000788,0.00
 000903,0.00001073,-0.00000388,0.00004216,-0.00000403,-0.00000961,-0.00
 000657,-0.00000142,0.00000546,0.00000597,-0.00000455,0.00000551,-0.000
 01365,0.00000514,0.00000256,-0.00001698,0.00000654,0.00000277,0.000006
 54,0.00000151,0.00000366,-0.00000867,-0.00000124,-0.00000418,0.0000119
 2,0.00000138,0.00000040,0.00000685,0.00000002,0.00000102,-0.00000279,0
 .00000202,-0.00000005,-0.00000012,0.00000081,-0.00000140,0.00000037,-0
 .00000014,-0.00000017,0.00000018,0.00000055,-0.00000023,-0.00000062,0.
 00000013,0.00000004,-0.00000012,-0.00000359,0.00000103,-0.00001006,-0.
 00000845,0.00000418,-0.00000730,0.00000115,-0.00000264,0.00000122,-0.0
 0000005,-0.00000022,-0.00000062,-0.00000300,-0.00000273,0.00000398,-0.
 00000203,0.00000138,0.00000275,0.00000095,0.00000214,0.00000074,-0.000
 00075,-0.00000467,-0.00000687,0.00000039,0.00000139,0.00000196,0.00000
 312,0.00000020,0.00000252,-0.00000054,0.00000015,0.00000022,-0.0000043
 1,0.00000721,0.00000156,0.00000020,0.00000077,0.00000056,0.00000387,-0
 .00000922,-0.00000319,0.00000138,-0.00000165,0.00000249,0.00000013,0.0
 0000065,-0.00000020,-0.00000166,-0.00000105,0.00000144,-0.00000653,0.0
 0000183,0.00000492,-0.00000186,-0.00000012,-0.00000183|||@


 I take a simple view of life: keep your eyes open and get on with it.
 -- Laurence Olivier
 Job cpu time:  0 days  3 hours 55 minutes 43.0 seconds.
 File lengths (MBytes):  RWF=   1369 Int=      0 D2E=      0 Chk=     26 Scr=      1
 Normal termination of Gaussian 09 at Mon Jul 31 15:11:30 2023.
