 Entering Gaussian System, Link 0=g09
 Initial command:
 /apps/software//g09/l1.exe /scratch/nathalia.rosa/82506.cluster.abaxnet/Gau-25475.inp -scrdir=/scratch/nathalia.rosa/82506.cluster.abaxnet/
 Entering Link 1 = /apps/software//g09/l1.exe PID=     25476.
  
 Copyright (c) 1988,1990,1992,1993,1995,1998,2003,2009, Gaussian, Inc.
                  All Rights Reserved.
  
 This is part of the Gaussian(R) 09 program.  It is based on
 the Gaussian(R) 03 system (copyright 2003, Gaussian, Inc.),
 the Gaussian(R) 98 system (copyright 1998, Gaussian, Inc.),
 the Gaussian(R) 94 system (copyright 1995, Gaussian, Inc.),
 the Gaussian 92(TM) system (copyright 1992, Gaussian, Inc.),
 the Gaussian 90(TM) system (copyright 1990, Gaussian, Inc.),
 the Gaussian 88(TM) system (copyright 1988, Gaussian, Inc.),
 the Gaussian 86(TM) system (copyright 1986, Carnegie Mellon
 University), and the Gaussian 82(TM) system (copyright 1983,
 Carnegie Mellon University). Gaussian is a federally registered
 trademark of Gaussian, Inc.
  
 This software contains proprietary and confidential information,
 including trade secrets, belonging to Gaussian, Inc.
  
 This software is provided under written license and may be
 used, copied, transmitted, or stored only in accord with that
 written license.
  
 The following legend is applicable only to US Government
 contracts under FAR:
  
                    RESTRICTED RIGHTS LEGEND
  
 Use, reproduction and disclosure by the US Government is
 subject to restrictions as set forth in subparagraphs (a)
 and (c) of the Commercial Computer Software - Restricted
 Rights clause in FAR 52.227-19.
  
 Gaussian, Inc.
 340 Quinnipiac St., Bldg. 40, Wallingford CT 06492
  
  
 ---------------------------------------------------------------
 Warning -- This program may not be used in any manner that
 competes with the business of Gaussian, Inc. or will provide
 assistance to any competitor of Gaussian, Inc.  The licensee
 of this program is prohibited from giving any competitor of
 Gaussian, Inc. access to this program.  By using this program,
 the user acknowledges that Gaussian, Inc. is engaged in the
 business of creating and licensing software in the field of
 computational chemistry and represents and warrants to the
 licensee that it is not a competitor of Gaussian, Inc. and that
 it will not use this program in any manner prohibited above.
 ---------------------------------------------------------------
  

 Cite this work as:
 Gaussian 09, Revision A.02,
 M. J. Frisch, G. W. Trucks, H. B. Schlegel, G. E. Scuseria, 
 M. A. Robb, J. R. Cheeseman, G. Scalmani, V. Barone, B. Mennucci, 
 G. A. Petersson, H. Nakatsuji, M. Caricato, X. Li, H. P. Hratchian, 
 A. F. Izmaylov, J. Bloino, G. Zheng, J. L. Sonnenberg, M. Hada, 
 M. Ehara, K. Toyota, R. Fukuda, J. Hasegawa, M. Ishida, T. Nakajima, 
 Y. Honda, O. Kitao, H. Nakai, T. Vreven, J. A. Montgomery, Jr., 
 J. E. Peralta, F. Ogliaro, M. Bearpark, J. J. Heyd, E. Brothers, 
 K. N. Kudin, V. N. Staroverov, R. Kobayashi, J. Normand, 
 K. Raghavachari, A. Rendell, J. C. Burant, S. S. Iyengar, J. Tomasi, 
 M. Cossi, N. Rega, J. M. Millam, M. Klene, J. E. Knox, J. B. Cross, 
 V. Bakken, C. Adamo, J. Jaramillo, R. Gomperts, R. E. Stratmann, 
 O. Yazyev, A. J. Austin, R. Cammi, C. Pomelli, J. W. Ochterski, 
 R. L. Martin, K. Morokuma, V. G. Zakrzewski, G. A. Voth, 
 P. Salvador, J. J. Dannenberg, S. Dapprich, A. D. Daniels, 
 O. Farkas, J. B. Foresman, J. V. Ortiz, J. Cioslowski, 
 and D. J. Fox, Gaussian, Inc., Wallingford CT, 2009.
 
 ******************************************
 Gaussian 09:  EM64L-G09RevA.02 11-Jun-2009
                11-Aug-2019 
 ******************************************
 %chk=/home/nathalia.rosa/DPP-SUB/DPP-SUB-5b/DPP-SUB-5B-TD-DFT.chk
 %mem=4Gb
 ---------------------------------------------------------
 # td=(nstates=10) cam-b3lyp/6-31+g(d,p) geom=connectivity
 ---------------------------------------------------------
 1/38=1,57=2/1;
 2/12=2,17=6,18=5,40=1/2;
 3/5=1,6=6,7=111,11=2,16=1,25=1,30=1,74=-40/1,2,8,3;
 4//1;
 5/5=2,38=5/2;
 8/6=1,10=2,108=10/1;
 9/41=10,42=1/14;
 6/7=2,8=2,9=2,10=2/1;
 99/5=1,9=1/99;
 -------
 Energy:
 -------
 Symbolic Z-matrix:
 Charge =  0 Multiplicity = 1
 N                     1.45217  -1.54861  -0.1698 
 C                     0.05537  -1.81312  -0.24282 
 C                     1.74638  -0.18471  -0.20389 
 C                     0.52721   0.47839  -0.26305 
 C                    -0.52721  -0.47838  -0.26306 
 C                    -1.74638   0.18472  -0.20389 
 C                    -0.05537   1.81313  -0.24282 
 N                    -1.45217   1.54861  -0.1698 
 O                    -0.43188  -2.93481  -0.29665 
 O                     0.43188   2.93481  -0.29664 
 H                    -2.12319   2.28617  -0.32627 
 H                     2.12319  -2.28617  -0.32626 
 C                    -5.39784  -0.6095    0.02805 
 C                    -4.2934    0.30873   0.2011 
 C                    -4.55856   1.60808   0.72251 
 H                    -3.75394   2.30213   0.9364 
 C                    -5.85611   1.96851   1.00772 
 H                    -6.058     2.95569   1.4122 
 C                    -6.94478   1.0686    0.80013 
 H                    -7.95234   1.39727   1.03598 
 C                    -6.7313   -0.20214   0.32798 
 C                    -3.08435  -0.32789  -0.16216 
 S                    -3.46108  -1.95845  -0.62984 
 N                    -5.08877  -1.83847  -0.41352 
 C                     5.39784   0.60949   0.02805 
 C                     4.2934   -0.30873   0.20111 
 C                     4.55856  -1.60808   0.72251 
 H                     3.75394  -2.30214   0.93641 
 C                     5.85611  -1.96851   1.00772 
 H                     6.058    -2.9557    1.41219 
 C                     6.94478  -1.06861   0.80013 
 H                     7.95234  -1.39728   1.03597 
 C                     6.7313    0.20214   0.32798 
 C                     3.08435   0.32789  -0.16215 
 S                     3.46108   1.95844  -0.62984 
 N                     5.08877   1.83846  -0.41352 
 H                    -7.54068  -0.90928   0.18202 
 H                     7.54068   0.90927   0.18202 
 
                          Input orientation:                          
 ---------------------------------------------------------------------
 Center     Atomic      Atomic             Coordinates (Angstroms)
 Number     Number       Type             X           Y           Z
 ---------------------------------------------------------------------
      1          7           0        1.452167   -1.548609   -0.169803
      2          6           0        0.055367   -1.813118   -0.242823
      3          6           0        1.746381   -0.184711   -0.203885
      4          6           0        0.527214    0.478389   -0.263054
      5          6           0       -0.527214   -0.478380   -0.263055
      6          6           0       -1.746381    0.184716   -0.203887
      7          6           0       -0.055370    1.813127   -0.242819
      8          7           0       -1.452170    1.548614   -0.169796
      9          8           0       -0.431881   -2.934805   -0.296645
     10          8           0        0.431875    2.934814   -0.296644
     11          1           0       -2.123189    2.286168   -0.326266
     12          1           0        2.123187   -2.286165   -0.326257
     13          6           0       -5.397842   -0.609498    0.028047
     14          6           0       -4.293400    0.308732    0.201104
     15          6           0       -4.558563    1.608077    0.722505
     16          1           0       -3.753941    2.302133    0.936398
     17          6           0       -5.856113    1.968508    1.007721
     18          1           0       -6.058001    2.955689    1.412196
     19          6           0       -6.944776    1.068600    0.800134
     20          1           0       -7.952344    1.397270    1.035981
     21          6           0       -6.731303   -0.202142    0.327983
     22          6           0       -3.084353   -0.327889   -0.162160
     23         16           0       -3.461077   -1.958445   -0.629840
     24          7           0       -5.088768   -1.838469   -0.413517
     25          6           0        5.397843    0.609494    0.028049
     26          6           0        4.293399   -0.308733    0.201111
     27          6           0        4.558561   -1.608079    0.722509
     28          1           0        3.753940   -2.302135    0.936405
     29          6           0        5.856112   -1.968514    1.007719
     30          1           0        6.057998   -2.955696    1.412189
     31          6           0        6.944776   -1.068607    0.800130
     32          1           0        7.952344   -1.397281    1.035974
     33          6           0        6.731303    0.202136    0.327983
     34          6           0        3.084353    0.327890   -0.162154
     35         16           0        3.461081    1.958443   -0.629838
     36          7           0        5.088772    1.838464   -0.413522
     37          1           0       -7.540683   -0.909280    0.182022
     38          1           0        7.540684    0.909273    0.182021
 ---------------------------------------------------------------------
                    Distance matrix (angstroms):
                    1          2          3          4          5
     1  N    0.000000
     2  C    1.423498   0.000000
     3  C    1.395687   2.347925   0.000000
     4  C    2.230012   2.339669   1.389090   0.000000
     5  C    2.252118   1.456481   2.293246   1.423807   0.000000
     6  C    3.638171   2.690567   3.512245   2.293246   1.389088
     7  C    3.685006   3.627935   2.690572   1.456482   2.339669
     8  N    4.245935   3.685002   3.638173   2.252119   2.230010
     9  O    2.342491   1.224128   3.509480   3.545544   2.458504
    10  O    4.599801   4.763141   3.386439   2.458504   3.545543
    11  H    5.245299   4.642975   4.592798   3.208847   3.192782
    12  H    1.009324   2.122879   2.138473   3.192786   3.208848
    13  C    6.916914   5.591025   7.160598   6.031130   4.881081
    14  C    6.049697   4.859125   6.073422   4.845879   3.875454
    15  C    6.847609   5.824499   6.620016   5.302136   4.645041
    16  H    6.569281   5.730330   6.143141   4.805519   4.425122
    17  C    8.195586   7.128124   7.993889   6.676989   5.999941
    18  H    8.899104   7.928044   8.566342   7.232464   6.722269
    19  C    8.848684   7.641601   8.838272   7.570294   6.686450
    20  H    9.928592   8.721546   9.904807   8.627557   7.767761
    21  C    8.308426   6.998568   8.494370   7.314268   6.238297
    22  C    4.697896   3.474227   4.833035   3.701848   2.563550
    23  S    4.951724   3.540661   5.517716   4.688193   3.306460
    24  N    6.551889   5.147029   7.035490   6.076983   4.762379
    25  C    4.501657   5.872348   3.744026   4.881081   6.031129
    26  C    3.122094   4.518979   2.581996   3.875456   4.845879
    27  C    3.232560   4.610061   3.285200   4.645045   5.302138
    28  H    2.662641   3.912692   3.132737   4.425130   4.805525
    29  C    4.577948   5.936046   4.641102   5.999946   6.676992
    30  H    5.069149   6.330571   5.374020   6.722273   7.232465
    31  C    5.598207   7.007568   5.367740   6.686453   7.570295
    32  H    6.612798   8.010648   6.443722   7.767765   8.627558
    33  C    5.584100   6.996799   5.028119   6.238298   7.314267
    34  C    2.487034   3.710145   1.433412   2.563550   3.701847
    35  S    4.067774   5.096405   2.777542   3.306458   4.688191
    36  N    4.975596   6.220800   3.912641   4.762379   6.076982
    37  H    9.022410   7.661422   9.323276   8.198456   7.040775
    38  H    6.575333   7.976332   5.909287   7.040775   8.198454
                    6          7          8          9         10
     6  C    0.000000
     7  C    2.347926   0.000000
     8  N    1.395686   1.423499   0.000000
     9  O    3.386433   4.763141   4.599796   0.000000
    10  O    3.509479   1.224127   2.342491   5.932833   0.000000
    11  H    2.138472   2.122877   1.009324   5.488165   2.636280
    12  H    4.592797   4.642980   5.245301   2.636282   5.488172
    13  C    3.744027   5.872349   4.501657   5.493018   6.830313
    14  C    2.581996   4.518979   3.122093   5.067506   5.428838
    15  C    3.285198   4.610059   3.232555   6.221410   5.263399
    16  H    3.132731   3.912685   2.662631   6.323132   4.409278
    17  C    4.641100   5.936044   4.577944   7.427391   6.494144
    18  H    5.374019   6.330569   5.069146   8.322937   6.711115
    19  C    5.367739   7.007566   5.598205   7.723210   7.687695
    20  H    6.443721   8.010647   6.612796   8.780668   8.627576
    21  C    5.028120   6.996800   5.584100   6.894949   7.844856
    22  C    1.433413   3.710147   2.487035   3.721519   4.798664
    23  S    2.777545   5.096409   4.067777   3.200051   6.261795
    24  N    3.912643   6.220803   4.975598   4.785625   7.298999
    25  C    7.160598   5.591032   6.916919   6.830312   5.493030
    26  C    6.073422   4.859131   6.049700   5.428838   5.067517
    27  C    6.620016   5.824506   6.847613   5.263401   6.221422
    28  H    6.143145   5.730340   6.569287   4.409284   6.323145
    29  C    7.993891   7.128133   8.195591   6.494147   7.427404
    30  H    8.566342   7.928051   8.899107   6.711116   8.322949
    31  C    8.838274   7.641608   8.848689   7.687697   7.723223
    32  H    9.904809   8.721555   9.928598   8.627577   8.780682
    33  C    8.494370   6.998574   8.308430   7.844856   6.894961
    34  C    4.833035   3.474233   4.697900   4.798663   3.721529
    35  S    5.517717   3.540668   4.951730   6.261793   3.200064
    36  N    7.035492   5.147036   6.551896   7.298998   4.785638
    37  H    5.909288   7.976334   6.575333   7.407222   8.863851
    38  H    9.323276   7.661428   9.022414   8.863851   7.407233
                   11         12         13         14         15
    11  H    0.000000
    12  H    6.240027   0.000000
    13  C    4.385632   7.713794   0.000000
    14  C    2.982983   6.941483   1.446681   0.000000
    15  C    2.736928   7.804537   2.470688   1.424945   0.000000
    16  H    2.062505   7.562236   3.464839   2.192104   1.083919
    17  C    3.976827   9.140622   2.795691   2.418173   1.376552
    18  H    4.353534   9.870719   3.881010   3.403960   2.130738
    19  C    5.098917   9.734021   2.409385   2.822416   2.447667
    20  H    6.051851  10.813867   3.401254   3.907660   3.414741
    21  C    5.277731   9.119933   1.426190   2.494085   2.855405
    22  C    2.789993   5.565990   2.338314   1.413875   2.589187
    23  S    4.460812   5.602104   2.450211   2.554079   3.969054
    24  N    5.080837   7.226364   1.341967   2.370831   3.667471
    25  C    7.713799   4.385629  10.864288   9.697453  10.030427
    26  C    6.941487   2.982981   9.697451   8.608971   9.072114
    27  C    7.804542   2.736925  10.030424   9.072113   9.667761
    28  H    7.562242   2.062505   9.351216   8.492171   9.188755
    29  C    9.140628   3.976823  11.377968  10.433076  11.015389
    30  H    9.870724   4.353528  11.775261  10.921294  11.576487
    31  C    9.734027   5.098913  12.375262  11.338099  11.810905
    32  H   10.813873   6.051848  13.411338  12.392164  12.870635
    33  C    9.119937   5.277727  12.159970  11.025948  11.383909
    34  C    5.565993   2.789992   8.535954   7.386715   7.799722
    35  S    5.602110   4.460809   9.247035   7.971448   8.140410
    36  N    7.226371   5.080834  10.777596   9.525912   9.716723
    37  H    6.310189   9.774689   2.169181   3.468251   3.939828
    38  H    9.774694   6.310186  13.028270  11.849327  12.131456
                   16         17         18         19         20
    16  H    0.000000
    17  C    2.129676   0.000000
    18  H    2.441764   1.085765   0.000000
    19  C    3.423682   1.427625   2.173038   0.000000
    20  H    4.295961   2.172854   2.481681   1.085744   0.000000
    21  C    3.937797   2.437155   3.405987   1.372327   2.133148
    22  C    2.927831   3.784800   4.701390   4.216522   5.301797
    23  S    4.548780   4.882496   5.921371   4.831561   5.848697
    24  N    4.555065   4.135433   5.220785   3.656332   4.557534
    25  C    9.351218  11.377970  11.775265  12.375263  13.411339
    26  C    8.492170  10.433074  10.921294  11.338097  12.392162
    27  C    9.188754  11.015387  11.576486  11.810902  12.870631
    28  H    8.807245  10.516492  11.142050  11.217974  12.277320
    29  C   10.516493  12.356227  12.897964  13.157883  14.212767
    30  H   11.142051  12.897962  13.481169  13.625039  14.675814
    31  C   11.217977  13.157884  13.625043  14.053018  15.101667
    32  H   12.277324  14.212770  14.675819  15.101668  16.148332
    33  C   10.710766  12.728910  13.127219  13.711631  14.749207
    34  C    7.201855   9.164724   9.641916  10.102380  11.152927
    35  S    7.391059   9.460011   9.786589  10.541276  11.547993
    36  N    8.957167  11.037543  11.350418  12.119073  13.128839
    37  H    5.022118   3.435290   4.318525   2.156195   2.493769
    38  H   11.405161  13.463949  13.806715  14.499517  15.524217
                   21         22         23         24         25
    21  C    0.000000
    22  C    3.681888   0.000000
    23  S    3.833589   1.737630   0.000000
    24  N    2.434196   2.522442   1.646380   0.000000
    25  C   12.159971   8.535954   9.247032  10.777593   0.000000
    26  C   11.025947   7.386715   7.971444   9.525908   1.446682
    27  C   11.383907   7.799722   8.140405   9.716717   2.470688
    28  H   10.710764   7.201857   7.391057   8.957163   3.464839
    29  C   12.728909   9.164725   9.460006  11.037537   2.795691
    30  H   13.127215   9.641915   9.786582  11.350409   3.881009
    31  C   13.711631  10.102381  10.541271  12.119068   2.409385
    32  H   14.749207  11.152928  11.547988  13.128834   3.401255
    33  C   13.468675   9.842168  10.462798  12.017819   1.426190
    34  C    9.842168   6.203465   6.949008   8.459090   2.338314
    35  S   10.462803   6.949010   7.953508   9.357524   2.450209
    36  N   12.017823   8.459092   9.357523  10.821375   1.341968
    37  H    1.084640   4.507256   4.289878   2.688856  13.028271
    38  H   14.315941  10.702357  11.398319  12.938617   2.169180
                   26         27         28         29         30
    26  C    0.000000
    27  C    1.424944   0.000000
    28  H    2.192105   1.083919   0.000000
    29  C    2.418173   1.376552   2.129675   0.000000
    30  H    3.403958   2.130737   2.441761   1.085763   0.000000
    31  C    2.822416   2.447668   3.423682   1.427626   2.173039
    32  H    3.907661   3.414741   4.295960   2.172854   2.481681
    33  C    2.494085   2.855405   3.937796   2.437154   3.405987
    34  C    1.413875   2.589188   2.927834   3.784801   4.701389
    35  S    2.554078   3.969053   4.548781   4.882495   5.921369
    36  N    2.370833   3.667472   4.555067   4.135434   5.220784
    37  H   11.849326  12.131453  11.405159  13.463947  13.806710
    38  H    3.468251   3.939828   5.022118   3.435290   4.318525
                   31         32         33         34         35
    31  C    0.000000
    32  H    1.085745   0.000000
    33  C    1.372327   2.133150   0.000000
    34  C    4.216522   5.301798   3.681887   0.000000
    35  S    4.831560   5.848697   3.833587   1.737629   0.000000
    36  N    3.656332   4.557535   2.434195   2.522442   1.646380
    37  H   14.499516  15.524215  14.315940  10.702357  11.398323
    38  H    2.156194   2.493770   1.084641   4.507255   4.289876
                   36         37         38
    36  N    0.000000
    37  H   12.938621   0.000000
    38  H    2.688855  15.190614   0.000000
 Stoichiometry    C20H10N4O2S2
 Framework group  C1[X(C20H10N4O2S2)]
 Deg. of freedom   108
 Full point group                 C1      NOp   1
 Largest Abelian subgroup         C1      NOp   1
 Largest concise Abelian subgroup C1      NOp   1
                         Standard orientation:                         
 ---------------------------------------------------------------------
 Center     Atomic      Atomic             Coordinates (Angstroms)
 Number     Number       Type             X           Y           Z
 ---------------------------------------------------------------------
      1          7           0        1.452167   -1.548609   -0.169803
      2          6           0        0.055367   -1.813118   -0.242823
      3          6           0        1.746381   -0.184711   -0.203885
      4          6           0        0.527214    0.478389   -0.263054
      5          6           0       -0.527214   -0.478380   -0.263055
      6          6           0       -1.746381    0.184716   -0.203887
      7          6           0       -0.055370    1.813127   -0.242819
      8          7           0       -1.452170    1.548614   -0.169796
      9          8           0       -0.431881   -2.934805   -0.296645
     10          8           0        0.431875    2.934814   -0.296644
     11          1           0       -2.123189    2.286168   -0.326266
     12          1           0        2.123187   -2.286165   -0.326257
     13          6           0       -5.397842   -0.609498    0.028047
     14          6           0       -4.293400    0.308732    0.201104
     15          6           0       -4.558563    1.608077    0.722505
     16          1           0       -3.753941    2.302133    0.936398
     17          6           0       -5.856113    1.968508    1.007721
     18          1           0       -6.058001    2.955689    1.412196
     19          6           0       -6.944776    1.068600    0.800134
     20          1           0       -7.952344    1.397270    1.035981
     21          6           0       -6.731303   -0.202142    0.327983
     22          6           0       -3.084353   -0.327889   -0.162160
     23         16           0       -3.461077   -1.958445   -0.629840
     24          7           0       -5.088768   -1.838469   -0.413517
     25          6           0        5.397843    0.609494    0.028049
     26          6           0        4.293399   -0.308733    0.201111
     27          6           0        4.558561   -1.608079    0.722509
     28          1           0        3.753940   -2.302135    0.936405
     29          6           0        5.856112   -1.968514    1.007719
     30          1           0        6.057998   -2.955696    1.412189
     31          6           0        6.944776   -1.068607    0.800130
     32          1           0        7.952344   -1.397281    1.035974
     33          6           0        6.731303    0.202136    0.327983
     34          6           0        3.084353    0.327890   -0.162154
     35         16           0        3.461081    1.958443   -0.629838
     36          7           0        5.088772    1.838464   -0.413522
     37          1           0       -7.540683   -0.909280    0.182022
     38          1           0        7.540684    0.909273    0.182021
 ---------------------------------------------------------------------
 Rotational constants (GHZ):      0.4548474      0.0718911      0.0636820
 Standard basis: 6-31+G(d,p) (6D, 7F)
 There are   590 symmetry adapted basis functions of A   symmetry.
 Integral buffers will be    131072 words long.
 Raffenetti 2 integral format.
 Two-electron integral symmetry is turned on.
   590 basis functions,  1014 primitive gaussians,   590 cartesian basis functions
   103 alpha electrons      103 beta electrons
       nuclear repulsion energy      2639.6621692308 Hartrees.
 NAtoms=   38 NActive=   38 NUniq=   38 SFac= 7.50D-01 NAtFMM=   80 NAOKFM=F Big=F
 One-electron integrals computed using PRISM.
 NBasis=   590 RedAO= T  NBF=   590
 NBsUse=   583 1.00D-06 NBFU=   583
 Harris functional with IExCor=20419 diagonalized for initial guess.
 ExpMin= 4.05D-02 ExpMax= 2.19D+04 ExpMxC= 3.30D+03 IAcc=2 IRadAn=         0 AccDes= 0.00D+00
 HarFok:  IExCor=20419 AccDes= 0.00D+00 IRadAn=         0 IDoV= 1
 ScaDFX=  1.000000  1.000000  1.000000  1.000000
 FoFCou: FMM=F IPFlag=           0 FMFlag=      100000 FMFlg1=           0
         NFxFlg=           0 DoJE=T BraDBF=F KetDBF=T FulRan=T
         Omega=  0.000000  0.000000  1.000000  0.000000  0.000000 ICntrl=     500 IOpCl=  0
         NMat0=    1 NMatS0=    1 NMatT0=    0 NMatD0=    1 NMtDS0=    0 NMtDT0=    0
         I1Cent=           4 NGrid=           0.
 Petite list used in FoFCou.
 Initial guess orbital symmetries:
       Occupied  (A) (A) (A) (A) (A) (A) (A) (A) (A) (A) (A) (A)
                 (A) (A) (A) (A) (A) (A) (A) (A) (A) (A) (A) (A)
                 (A) (A) (A) (A) (A) (A) (A) (A) (A) (A) (A) (A)
                 (A) (A) (A) (A) (A) (A) (A) (A) (A) (A) (A) (A)
                 (A) (A) (A) (A) (A) (A) (A) (A) (A) (A) (A) (A)
                 (A) (A) (A) (A) (A) (A) (A) (A) (A) (A) (A) (A)
                 (A) (A) (A) (A) (A) (A) (A) (A) (A) (A) (A) (A)
                 (A) (A) (A) (A) (A) (A) (A) (A) (A) (A) (A) (A)
                 (A) (A) (A) (A) (A) (A) (A)
       Virtual   (A) (A) (A) (A) (A) (A) (A) (A) (A) (A) (A) (A)
                 (A) (A) (A) (A) (A) (A) (A) (A) (A) (A) (A) (A)
                 (A) (A) (A) (A) (A) (A) (A) (A) (A) (A) (A) (A)
                 (A) (A) (A) (A) (A) (A) (A) (A) (A) (A) (A) (A)
                 (A) (A) (A) (A) (A) (A) (A) (A) (A) (A) (A) (A)
                 (A) (A) (A) (A) (A) (A) (A) (A) (A) (A) (A) (A)
                 (A) (A) (A) (A) (A) (A) (A) (A) (A) (A) (A) (A)
                 (A) (A) (A) (A) (A) (A) (A) (A) (A) (A) (A) (A)
                 (A) (A) (A) (A) (A) (A) (A) (A) (A) (A) (A) (A)
                 (A) (A) (A) (A) (A) (A) (A) (A) (A) (A) (A) (A)
                 (A) (A) (A) (A) (A) (A) (A) (A) (A) (A) (A) (A)
                 (A) (A) (A) (A) (A) (A) (A) (A) (A) (A) (A) (A)
                 (A) (A) (A) (A) (A) (A) (A) (A) (A) (A) (A) (A)
                 (A) (A) (A) (A) (A) (A) (A) (A) (A) (A) (A) (A)
                 (A) (A) (A) (A) (A) (A) (A) (A) (A) (A) (A) (A)
                 (A) (A) (A) (A) (A) (A) (A) (A) (A) (A) (A) (A)
                 (A) (A) (A) (A) (A) (A) (A) (A) (A) (A) (A) (A)
                 (A) (A) (A) (A) (A) (A) (A) (A) (A) (A) (A) (A)
                 (A) (A) (A) (A) (A) (A) (A) (A) (A) (A) (A) (A)
                 (A) (A) (A) (A) (A) (A) (A) (A) (A) (A) (A) (A)
                 (A) (A) (A) (A) (A) (A) (A) (A) (A) (A) (A) (A)
                 (A) (A) (A) (A) (A) (A) (A) (A) (A) (A) (A) (A)
                 (A) (A) (A) (A) (A) (A) (A) (A) (A) (A) (A) (A)
                 (A) (A) (A) (A) (A) (A) (A) (A) (A) (A) (A) (A)
                 (A) (A) (A) (A) (A) (A) (A) (A) (A) (A) (A) (A)
                 (A) (A) (A) (A) (A) (A) (A) (A) (A) (A) (A) (A)
                 (A) (A) (A) (A) (A) (A) (A) (A) (A) (A) (A) (A)
                 (A) (A) (A) (A) (A) (A) (A) (A) (A) (A) (A) (A)
                 (A) (A) (A) (A) (A) (A) (A) (A) (A) (A) (A) (A)
                 (A) (A) (A) (A) (A) (A) (A) (A) (A) (A) (A) (A)
                 (A) (A) (A) (A) (A) (A) (A) (A) (A) (A) (A) (A)
                 (A) (A) (A) (A) (A) (A) (A) (A) (A) (A) (A) (A)
                 (A) (A) (A) (A) (A) (A) (A) (A) (A) (A) (A) (A)
                 (A) (A) (A) (A) (A) (A) (A) (A) (A) (A) (A) (A)
                 (A) (A) (A) (A) (A) (A) (A) (A) (A) (A) (A) (A)
                 (A) (A) (A) (A) (A) (A) (A) (A) (A) (A) (A) (A)
                 (A) (A) (A) (A) (A) (A) (A) (A) (A) (A) (A) (A)
                 (A) (A) (A) (A) (A) (A) (A) (A) (A) (A) (A) (A)
                 (A) (A) (A) (A) (A) (A) (A) (A) (A) (A) (A) (A)
                 (A) (A) (A) (A) (A) (A) (A) (A) (A) (A) (A) (A)
 The electronic state of the initial guess is 1-A.
 Requested convergence on RMS density matrix=1.00D-08 within 128 cycles.
 Requested convergence on MAX density matrix=1.00D-06.
 Requested convergence on             energy=1.00D-06.
 No special actions if energy rises.
 FoFJK:  IHMeth= 1 ICntrl=     0 DoSepK=T KAlg= 1 I1Cent= 0 FoldK=F
 FoFJK:  IHMeth= 1 ICntrl=     0 DoSepK=T KAlg= 1 I1Cent= 0 FoldK=F
 FoFJK:  IHMeth= 1 ICntrl=     0 DoSepK=T KAlg= 1 I1Cent= 0 FoldK=F
 FoFJK:  IHMeth= 1 ICntrl=     0 DoSepK=T KAlg= 1 I1Cent= 0 FoldK=F
 FoFJK:  IHMeth= 1 ICntrl=     0 DoSepK=T KAlg= 1 I1Cent= 0 FoldK=F
 FoFJK:  IHMeth= 1 ICntrl=     0 DoSepK=T KAlg= 1 I1Cent= 0 FoldK=F
 FoFJK:  IHMeth= 1 ICntrl=     0 DoSepK=T KAlg= 1 I1Cent= 0 FoldK=F
 FoFJK:  IHMeth= 1 ICntrl=     0 DoSepK=T KAlg= 1 I1Cent= 0 FoldK=F
 FoFJK:  IHMeth= 1 ICntrl=     0 DoSepK=T KAlg= 1 I1Cent= 0 FoldK=F
 FoFJK:  IHMeth= 1 ICntrl=     0 DoSepK=T KAlg= 1 I1Cent= 0 FoldK=F
 FoFJK:  IHMeth= 1 ICntrl=     0 DoSepK=T KAlg= 1 I1Cent= 0 FoldK=F
 FoFJK:  IHMeth= 1 ICntrl=     0 DoSepK=T KAlg= 1 I1Cent= 0 FoldK=F
 FoFJK:  IHMeth= 1 ICntrl=     0 DoSepK=T KAlg= 1 I1Cent= 0 FoldK=F
 FoFJK:  IHMeth= 1 ICntrl=     0 DoSepK=T KAlg= 1 I1Cent= 0 FoldK=F
 FoFJK:  IHMeth= 1 ICntrl=     0 DoSepK=T KAlg= 1 I1Cent= 0 FoldK=F
 FoFJK:  IHMeth= 1 ICntrl=     0 DoSepK=T KAlg= 1 I1Cent= 0 FoldK=F
 FoFJK:  IHMeth= 1 ICntrl=     0 DoSepK=T KAlg= 1 I1Cent= 0 FoldK=F
 FoFJK:  IHMeth= 1 ICntrl=     0 DoSepK=T KAlg= 1 I1Cent= 0 FoldK=F
 FoFJK:  IHMeth= 1 ICntrl=     0 DoSepK=T KAlg= 1 I1Cent= 0 FoldK=F
 Restarting incremental Fock formation.
 FoFJK:  IHMeth= 1 ICntrl=     0 DoSepK=T KAlg= 1 I1Cent= 0 FoldK=F
 FoFJK:  IHMeth= 1 ICntrl=     0 DoSepK=T KAlg= 1 I1Cent= 0 FoldK=F
 FoFJK:  IHMeth= 1 ICntrl=     0 DoSepK=T KAlg= 1 I1Cent= 0 FoldK=F
 FoFJK:  IHMeth= 1 ICntrl=     0 DoSepK=T KAlg= 1 I1Cent= 0 FoldK=F
 FoFJK:  IHMeth= 1 ICntrl=     0 DoSepK=T KAlg= 1 I1Cent= 0 FoldK=F
 FoFJK:  IHMeth= 1 ICntrl=     0 DoSepK=T KAlg= 1 I1Cent= 0 FoldK=F
 FoFJK:  IHMeth= 1 ICntrl=     0 DoSepK=T KAlg= 1 I1Cent= 0 FoldK=F
 FoFJK:  IHMeth= 1 ICntrl=     0 DoSepK=T KAlg= 1 I1Cent= 0 FoldK=F
 FoFJK:  IHMeth= 1 ICntrl=     0 DoSepK=T KAlg= 1 I1Cent= 0 FoldK=F
 FoFJK:  IHMeth= 1 ICntrl=     0 DoSepK=T KAlg= 1 I1Cent= 0 FoldK=F
 FoFJK:  IHMeth= 1 ICntrl=     0 DoSepK=T KAlg= 1 I1Cent= 0 FoldK=F
 FoFJK:  IHMeth= 1 ICntrl=     0 DoSepK=T KAlg= 1 I1Cent= 0 FoldK=F
 FoFJK:  IHMeth= 1 ICntrl=     0 DoSepK=T KAlg= 1 I1Cent= 0 FoldK=F
 FoFJK:  IHMeth= 1 ICntrl=     0 DoSepK=T KAlg= 1 I1Cent= 0 FoldK=F
 FoFJK:  IHMeth= 1 ICntrl=     0 DoSepK=T KAlg= 1 I1Cent= 0 FoldK=F
 FoFJK:  IHMeth= 1 ICntrl=     0 DoSepK=T KAlg= 1 I1Cent= 0 FoldK=F
 FoFJK:  IHMeth= 1 ICntrl=     0 DoSepK=T KAlg= 1 I1Cent= 0 FoldK=F
 SCF Done:  E(RCAM-B3LYP) =  -1933.43511605     A.U. after   36 cycles
             Convg  =    0.7411D-08             -V/T =  2.0069
 ExpMin= 4.05D-02 ExpMax= 2.19D+04 ExpMxC= 3.30D+03 IAcc=3 IRadAn=         5 AccDes= 0.00D+00
 HarFok:  IExCor=  205 AccDes= 0.00D+00 IRadAn=         5 IDoV=-2
 ScaDFX=  1.000000  1.000000  1.000000  1.000000
 Range of M.O.s used for correlation:    37   583
 NBasis=   590 NAE=   103 NBE=   103 NFC=    36 NFV=     0
 NROrb=    547 NOA=    67 NOB=    67 NVA=   480 NVB=   480

 **** Warning!!: The largest alpha MO coefficient is  0.14250160D+03

 Would need an additional 45282100000 words for in-memory AO integral storage.
 Orbital symmetries:
       Occupied  (A) (A) (A) (A) (A) (A) (A) (A) (A) (A) (A) (A)
                 (A) (A) (A) (A) (A) (A) (A) (A) (A) (A) (A) (A)
                 (A) (A) (A) (A) (A) (A) (A) (A) (A) (A) (A) (A)
                 (A) (A) (A) (A) (A) (A) (A) (A) (A) (A) (A) (A)
                 (A) (A) (A) (A) (A) (A) (A) (A) (A) (A) (A) (A)
                 (A) (A) (A) (A) (A) (A) (A) (A) (A) (A) (A) (A)
                 (A) (A) (A) (A) (A) (A) (A) (A) (A) (A) (A) (A)
                 (A) (A) (A) (A) (A) (A) (A) (A) (A) (A) (A) (A)
                 (A) (A) (A) (A) (A) (A) (A)
       Virtual   (A) (A) (A) (A) (A) (A) (A) (A) (A) (A) (A) (A)
                 (A) (A) (A) (A) (A) (A) (A) (A) (A) (A) (A) (A)
                 (A) (A) (A) (A) (A) (A) (A) (A) (A) (A) (A) (A)
                 (A) (A) (A) (A) (A) (A) (A) (A) (A) (A) (A) (A)
                 (A) (A) (A) (A) (A) (A) (A) (A) (A) (A) (A) (A)
                 (A) (A) (A) (A) (A) (A) (A) (A) (A) (A) (A) (A)
                 (A) (A) (A) (A) (A) (A) (A) (A) (A) (A) (A) (A)
                 (A) (A) (A) (A) (A) (A) (A) (A) (A) (A) (A) (A)
                 (A) (A) (A) (A) (A) (A) (A) (A) (A) (A) (A) (A)
                 (A) (A) (A) (A) (A) (A) (A) (A) (A) (A) (A) (A)
                 (A) (A) (A) (A) (A) (A) (A) (A) (A) (A) (A) (A)
                 (A) (A) (A) (A) (A) (A) (A) (A) (A) (A) (A) (A)
                 (A) (A) (A) (A) (A) (A) (A) (A) (A) (A) (A) (A)
                 (A) (A) (A) (A) (A) (A) (A) (A) (A) (A) (A) (A)
                 (A) (A) (A) (A) (A) (A) (A) (A) (A) (A) (A) (A)
                 (A) (A) (A) (A) (A) (A) (A) (A) (A) (A) (A) (A)
                 (A) (A) (A) (A) (A) (A) (A) (A) (A) (A) (A) (A)
                 (A) (A) (A) (A) (A) (A) (A) (A) (A) (A) (A) (A)
                 (A) (A) (A) (A) (A) (A) (A) (A) (A) (A) (A) (A)
                 (A) (A) (A) (A) (A) (A) (A) (A) (A) (A) (A) (A)
                 (A) (A) (A) (A) (A) (A) (A) (A) (A) (A) (A) (A)
                 (A) (A) (A) (A) (A) (A) (A) (A) (A) (A) (A) (A)
                 (A) (A) (A) (A) (A) (A) (A) (A) (A) (A) (A) (A)
                 (A) (A) (A) (A) (A) (A) (A) (A) (A) (A) (A) (A)
                 (A) (A) (A) (A) (A) (A) (A) (A) (A) (A) (A) (A)
                 (A) (A) (A) (A) (A) (A) (A) (A) (A) (A) (A) (A)
                 (A) (A) (A) (A) (A) (A) (A) (A) (A) (A) (A) (A)
                 (A) (A) (A) (A) (A) (A) (A) (A) (A) (A) (A) (A)
                 (A) (A) (A) (A) (A) (A) (A) (A) (A) (A) (A) (A)
                 (A) (A) (A) (A) (A) (A) (A) (A) (A) (A) (A) (A)
                 (A) (A) (A) (A) (A) (A) (A) (A) (A) (A) (A) (A)
                 (A) (A) (A) (A) (A) (A) (A) (A) (A) (A) (A) (A)
                 (A) (A) (A) (A) (A) (A) (A) (A) (A) (A) (A) (A)
                 (A) (A) (A) (A) (A) (A) (A) (A) (A) (A) (A) (A)
                 (A) (A) (A) (A) (A) (A) (A) (A) (A) (A) (A) (A)
                 (A) (A) (A) (A) (A) (A) (A) (A) (A) (A) (A) (A)
                 (A) (A) (A) (A) (A) (A) (A) (A) (A) (A) (A) (A)
                 (A) (A) (A) (A) (A) (A) (A) (A) (A) (A) (A) (A)
                 (A) (A) (A) (A) (A) (A) (A) (A) (A) (A) (A) (A)
                 (A) (A) (A) (A) (A) (A) (A) (A) (A) (A) (A) (A)
    40 initial guesses have been made.
 Convergence on wavefunction:    0.001000000000000
 Iteration     1 Dimension    40 NMult    40
 CISAX will form    40 AO SS matrices at one time.
 FoFJK:  IHMeth= 1 ICntrl=     0 DoSepK=T KAlg= 1 I1Cent= 0 FoldK=F
 FoFJK:  IHMeth= 1 ICntrl=     0 DoSepK=T KAlg= 1 I1Cent= 0 FoldK=F
 New state      3 was old state      4
 New state      4 was old state      9
 New state      5 was old state      3
 New state      6 was old state     10
 New state      7 was old state      6
 New state      8 was old state      5
 New state      9 was old state      7
 No map to state     10
 Iteration     2 Dimension    60 NMult    60
 FoFJK:  IHMeth= 1 ICntrl=     0 DoSepK=T KAlg= 1 I1Cent= 0 FoldK=F
 FoFJK:  IHMeth= 1 ICntrl=     0 DoSepK=T KAlg= 1 I1Cent= 0 FoldK=F
 New state      3 was old state      4
 New state      4 was old state      3
 Iteration     3 Dimension    80 NMult    80
 FoFJK:  IHMeth= 1 ICntrl=     0 DoSepK=T KAlg= 1 I1Cent= 0 FoldK=F
 FoFJK:  IHMeth= 1 ICntrl=     0 DoSepK=T KAlg= 1 I1Cent= 0 FoldK=F
 Iteration     4 Dimension   100 NMult   100
 FoFJK:  IHMeth= 1 ICntrl=     0 DoSepK=T KAlg= 1 I1Cent= 0 FoldK=F
 FoFJK:  IHMeth= 1 ICntrl=     0 DoSepK=T KAlg= 1 I1Cent= 0 FoldK=F
 Iteration     5 Dimension   120 NMult   120
 FoFJK:  IHMeth= 1 ICntrl=     0 DoSepK=T KAlg= 1 I1Cent= 0 FoldK=F
 FoFJK:  IHMeth= 1 ICntrl=     0 DoSepK=T KAlg= 1 I1Cent= 0 FoldK=F
 Iteration     6 Dimension   132 NMult   132
 FoFJK:  IHMeth= 1 ICntrl=     0 DoSepK=T KAlg= 1 I1Cent= 0 FoldK=F
 FoFJK:  IHMeth= 1 ICntrl=     0 DoSepK=T KAlg= 1 I1Cent= 0 FoldK=F
 ***********************************************************************
 Excited states from <AA,BB:AA,BB> singles matrix:
 ***********************************************************************
 
 Ground to excited state transition electric dipole moments (Au):
       state          X           Y           Z        Dip. S.      Osc.
         1         3.7056     -0.3922      0.0000     13.8855      0.7968
         2         0.0000      0.0000     -0.0698      0.0049      0.0004
         3         0.0000      0.0000     -0.0119      0.0001      0.0000
         4         1.1246      0.7002      0.0000      1.7551      0.1587
         5         0.0000      0.0000      0.1152      0.0133      0.0012
         6         0.0000      0.0000      0.0883      0.0078      0.0008
         7        -0.7842      0.3414      0.0000      0.7315      0.0712
         8         0.0000      0.0000      0.4404      0.1939      0.0196
         9         0.2993     -0.7368      0.0000      0.6324      0.0654
        10        -0.6218      1.1656      0.0000      1.7454      0.1839
 Ground to excited state transition velocity dipole moments (Au):
       state          X           Y           Z        Dip. S.      Osc.
         1        -0.3165      0.0389      0.0000      0.1017      0.7878
         2         0.0000      0.0000      0.0095      0.0001      0.0005
         3         0.0000      0.0000      0.0018      0.0000      0.0000
         4        -0.1508     -0.0962      0.0000      0.0320      0.1572
         5         0.0000      0.0000     -0.0116      0.0001      0.0006
         6         0.0000      0.0000     -0.0104      0.0001      0.0005
         7         0.1104     -0.0388      0.0000      0.0137      0.0625
         8         0.0000      0.0000     -0.0628      0.0039      0.0174
         9        -0.0361      0.1162      0.0000      0.0148      0.0636
        10         0.0851     -0.1798      0.0000      0.0396      0.1669
 Ground to excited state transition magnetic dipole moments (Au):
       state          X           Y           Z
         1        -0.0036      0.1089      0.0000
         2         0.0000      0.0000      1.1019
         3         0.0000      0.0000      0.1576
         4         0.0982     -0.1095      0.0000
         5         0.0000      0.0000      0.2282
         6         0.0000      0.0000     -0.7444
         7         0.0954     -0.0946      0.0000
         8         0.0000      0.0000      1.8572
         9        -0.1786     -0.1115      0.0000
        10         0.0420     -1.1697      0.0000
 <0|del|b> * <b|rxdel|0> + <0|del|b> * <b|delr+rdel|0>
 Rotatory Strengths (R) in cgs (10**-40 erg-esu-cm/Gauss)
       state          XX          YY          ZZ    R(velocity)
         1        32.5589   -104.2566    115.8122     14.7049
 Total R(velocity) tensor for State=          1
                 1             2             3 
      1   0.325589D+02  0.265049D+03  0.151296D-01
      2  -0.128070D+02 -0.104257D+03 -0.959876D-03
      3  -0.739592D-03 -0.322541D-02  0.115812D+03
 R(velocity) tensor in inp. orien. for State=          1
                 1             2             3 
      1   0.325589D+02  0.265049D+03  0.151296D-01
      2  -0.128070D+02 -0.104257D+03 -0.959876D-03
      3  -0.739592D-03 -0.322541D-02  0.115812D+03
         2        42.2632     18.0941      0.0000     20.1191
 Total R(velocity) tensor for State=          2
                 1             2             3 
      1   0.422632D+02 -0.866260D+02  0.388430D-02
      2  -0.234298D+01  0.180941D+02 -0.286246D-03
      3   0.973956D-04 -0.695598D-04  0.000000D+00
 R(velocity) tensor in inp. orien. for State=          2
                 1             2             3 
      1   0.422632D+02 -0.866260D+02  0.388430D-02
      2  -0.234298D+01  0.180941D+02 -0.286246D-03
      3   0.973956D-04 -0.695598D-04  0.000000D+00
         3         1.7173     -0.1492      0.0000      0.5227
 Total R(velocity) tensor for State=          3
                 1             2             3 
      1   0.171726D+01 -0.626364D+01 -0.188449D-02
      2   0.916415D-01 -0.149186D+00 -0.302922D-04
      3   0.359911D-04 -0.138461D-04  0.000000D+00
 R(velocity) tensor in inp. orien. for State=          3
                 1             2             3 
      1   0.171726D+01 -0.626364D+01 -0.188449D-02
      2   0.916415D-01 -0.149186D+00 -0.302922D-04
      3   0.359911D-04 -0.138461D-04  0.000000D+00
         4        11.3683    -79.2356     45.5932     -7.4247
 Total R(velocity) tensor for State=          4
                 1             2             3 
      1   0.113683D+02 -0.178181D+02  0.445395D-02
      2   0.505539D+02 -0.792356D+02 -0.544589D-03
      3  -0.627485D-04  0.335707D-03  0.455932D+02
 R(velocity) tensor in inp. orien. for State=          4
                 1             2             3 
      1   0.113683D+02 -0.178181D+02  0.445395D-02
      2   0.505539D+02 -0.792356D+02 -0.544589D-03
      3  -0.627485D-04  0.335707D-03  0.455932D+02
         5       -10.9889     -2.4176      0.0000     -4.4688
 Total R(velocity) tensor for State=          5
                 1             2             3 
      1  -0.109889D+02 -0.294011D+02  0.497602D-02
      2  -0.169055D+01 -0.241758D+01  0.415551D-03
      3   0.101909D-03  0.353524D-04  0.000000D+00
 R(velocity) tensor in inp. orien. for State=          5
                 1             2             3 
      1  -0.109889D+02 -0.294011D+02  0.497602D-02
      2  -0.169055D+01 -0.241758D+01  0.415551D-03
      3   0.101909D-03  0.353524D-04  0.000000D+00
         6        15.0257     22.7298      0.0000     12.5852
 Total R(velocity) tensor for State=          6
                 1             2             3 
      1   0.150257D+02 -0.208347D+02 -0.905335D-02
      2  -0.382922D+01  0.227298D+02  0.571850D-02
      3  -0.119809D-03 -0.104160D-03  0.000000D+00
 R(velocity) tensor in inp. orien. for State=          6
                 1             2             3 
      1   0.150257D+02 -0.208347D+02 -0.905335D-02
      2  -0.382922D+01  0.227298D+02  0.571850D-02
      3  -0.119809D-03 -0.104160D-03  0.000000D+00
         7        46.1838     26.1872     -3.5956     22.9251
 Total R(velocity) tensor for State=          7
                 1             2             3 
      1   0.461838D+02  0.131207D+03 -0.112305D-02
      2   0.921769D+01  0.261872D+02 -0.630692D-02
      3   0.302987D-03  0.962667D-03 -0.359561D+01
 R(velocity) tensor in inp. orien. for State=          7
                 1             2             3 
      1   0.461838D+02  0.131207D+03 -0.112305D-02
      2   0.921769D+01  0.261872D+02 -0.630692D-02
      3   0.302987D-03  0.962667D-03 -0.359561D+01
         8      -446.5811    -98.3497      0.0000   -181.6436
 Total R(velocity) tensor for State=          8
                 1             2             3 
      1  -0.446581D+03 -0.260403D+03 -0.527169D-02
      2  -0.149424D+02 -0.983497D+02 -0.361451D-03
      3   0.360149D-03  0.117017D-03  0.000000D+00
 R(velocity) tensor in inp. orien. for State=          8
                 1             2             3 
      1  -0.446581D+03 -0.260403D+03 -0.527169D-02
      2  -0.149424D+02 -0.983497D+02 -0.361451D-03
      3   0.360149D-03  0.117017D-03  0.000000D+00
         9         7.3422     13.4412    -50.4506     -9.8891
 Total R(velocity) tensor for State=          9
                 1             2             3 
      1   0.734218D+01  0.227905D+01 -0.533959D-02
      2   0.433020D+02  0.134412D+02 -0.252253D-02
      3   0.614739D-03 -0.157556D-03 -0.504506D+02
 R(velocity) tensor in inp. orien. for State=          9
                 1             2             3 
      1   0.734218D+01  0.227905D+01 -0.533959D-02
      2   0.433020D+02  0.134412D+02 -0.252253D-02
      3   0.614739D-03 -0.157556D-03 -0.504506D+02
        10       693.2973      8.9406    254.9221    319.0533
 Total R(velocity) tensor for State=         10
                 1             2             3 
      1   0.693297D+03  0.328021D+03 -0.661578D-02
      2   0.188967D+02  0.894060D+01  0.158038D-02
      3  -0.573226D-04 -0.125198D-02  0.254922D+03
 R(velocity) tensor in inp. orien. for State=         10
                 1             2             3 
      1   0.693297D+03  0.328021D+03 -0.661578D-02
      2   0.188966D+02  0.894059D+01  0.158038D-02
      3  -0.573226D-04 -0.125198D-02  0.254922D+03
 1/2[<0|r|b>*<b|rxdel|0> + (<0|rxdel|b>*<b|r|0>)*]
 Rotatory Strengths (R) in cgs (10**-40 erg-esu-cm/Gauss)
       state          XX          YY          ZZ     R(length)     R(au)
         1         9.3858     30.2133      0.0000     13.1997      0.0280
         2         0.0000      0.0000     54.3821     18.1274      0.0385
         3         0.0000      0.0000      1.3277      0.4426      0.0009
         4       -78.0988     54.2218      0.0000     -7.9590     -0.0169
         5         0.0000      0.0000    -18.5892     -6.1964     -0.0131
         6         0.0000      0.0000     46.4803     15.4934      0.0329
         7        52.8961     22.8288      0.0000     25.2416      0.0535
         8         0.0000      0.0000   -578.3489   -192.7830     -0.4089
         9        37.8029    -58.0702      0.0000     -6.7558     -0.0143
        10        18.4804    964.1953      0.0000    327.5586      0.6948
  1/2[<0|del|b>*<b|r|0> + (<0|r|b>*<b|del|0>)*] (Au)
       state          X           Y           Z        Dip. S.   Osc.(frdel)
         1        -1.1730     -0.0153      0.0000      1.1882      0.7922
         2         0.0000      0.0000     -0.0007      0.0007      0.0004
         3         0.0000      0.0000      0.0000      0.0000      0.0000
         4        -0.1696     -0.0674      0.0000      0.2369      0.1579
         5         0.0000      0.0000     -0.0013      0.0013      0.0009
         6         0.0000      0.0000     -0.0009      0.0009      0.0006
         7        -0.0865     -0.0133      0.0000      0.0998      0.0665
         8         0.0000      0.0000     -0.0277      0.0277      0.0184
         9        -0.0108     -0.0856      0.0000      0.0964      0.0643
        10        -0.0529     -0.2096      0.0000      0.2625      0.1750
 Ground to excited state transition densities written to RWF  633

 Excitation energies and oscillator strengths:
 
 Excited State   1:      Singlet-A      2.3423 eV  529.33 nm  f=0.7968  <S**2>=0.000
     103 ->104         0.69979
 This state for optimization and/or second-order correction.
 Copying the excited state density for this state as the 1-particle RhoCI density.
 
 Excited State   2:      Singlet-A      3.3478 eV  370.35 nm  f=0.0004  <S**2>=0.000
     102 ->104         0.26992
     103 ->105         0.63863
 
 Excited State   3:      Singlet-A      3.5204 eV  352.18 nm  f=0.0000  <S**2>=0.000
      97 ->104         0.10993
      98 ->104         0.10187
     100 ->104         0.10410
     101 ->105         0.18001
     102 ->104         0.58795
     103 ->105        -0.25954
 
 Excited State   4:      Singlet-A      3.6917 eV  335.85 nm  f=0.1587  <S**2>=0.000
     101 ->104         0.65943
     102 ->105         0.22535
 
 Excited State   5:      Singlet-A      3.8054 eV  325.81 nm  f=0.0012  <S**2>=0.000
      96 ->105        -0.10384
      98 ->104         0.59141
      98 ->106        -0.15924
     100 ->104         0.23712
     102 ->104        -0.14102
 
 Excited State   6:      Singlet-A      3.9329 eV  315.25 nm  f=0.0008  <S**2>=0.000
      97 ->104         0.61695
      97 ->106        -0.15936
      98 ->104        -0.12065
     100 ->104         0.20573
     102 ->104        -0.10865
 
 Excited State   7:      Singlet-A      3.9735 eV  312.03 nm  f=0.0712  <S**2>=0.000
      96 ->104        -0.13887
      99 ->104         0.50072
     100 ->105         0.20844
     102 ->105        -0.12059
     103 ->106        -0.37237
 
 Excited State   8:      Singlet-A      4.1178 eV  301.09 nm  f=0.0196  <S**2>=0.000
      97 ->104        -0.24711
      98 ->104        -0.22073
      99 ->105         0.24552
     100 ->104         0.53071
     103 ->107         0.10895
 
 Excited State   9:      Singlet-A      4.2230 eV  293.59 nm  f=0.0654  <S**2>=0.000
      96 ->104         0.45859
      96 ->106        -0.13076
      98 ->105        -0.15016
      98 ->107        -0.10773
      99 ->104        -0.16134
     102 ->105        -0.12342
     103 ->106        -0.40227
 
 Excited State  10:      Singlet-A      4.2998 eV  288.35 nm  f=0.1839  <S**2>=0.000
      96 ->104         0.38388
      98 ->105        -0.13175
      99 ->104         0.35926
     100 ->105         0.14986
     102 ->105         0.11487
     103 ->106         0.35166
 SavETr:  write IOETrn=   770 NScale= 10 NData=  16 NLR=1 LETran=     190.

 **********************************************************************

            Population analysis using the SCF density.

 **********************************************************************

 Orbital symmetries:
       Occupied  (A) (A) (A) (A) (A) (A) (A) (A) (A) (A) (A) (A)
                 (A) (A) (A) (A) (A) (A) (A) (A) (A) (A) (A) (A)
                 (A) (A) (A) (A) (A) (A) (A) (A) (A) (A) (A) (A)
                 (A) (A) (A) (A) (A) (A) (A) (A) (A) (A) (A) (A)
                 (A) (A) (A) (A) (A) (A) (A) (A) (A) (A) (A) (A)
                 (A) (A) (A) (A) (A) (A) (A) (A) (A) (A) (A) (A)
                 (A) (A) (A) (A) (A) (A) (A) (A) (A) (A) (A) (A)
                 (A) (A) (A) (A) (A) (A) (A) (A) (A) (A) (A) (A)
                 (A) (A) (A) (A) (A) (A) (A)
       Virtual   (A) (A) (A) (A) (A) (A) (A) (A) (A) (A) (A) (A)
                 (A) (A) (A) (A) (A) (A) (A) (A) (A) (A) (A) (A)
                 (A) (A) (A) (A) (A) (A) (A) (A) (A) (A) (A) (A)
                 (A) (A) (A) (A) (A) (A) (A) (A) (A) (A) (A) (A)
                 (A) (A) (A) (A) (A) (A) (A) (A) (A) (A) (A) (A)
                 (A) (A) (A) (A) (A) (A) (A) (A) (A) (A) (A) (A)
                 (A) (A) (A) (A) (A) (A) (A) (A) (A) (A) (A) (A)
                 (A) (A) (A) (A) (A) (A) (A) (A) (A) (A) (A) (A)
                 (A) (A) (A) (A) (A) (A) (A) (A) (A) (A) (A) (A)
                 (A) (A) (A) (A) (A) (A) (A) (A) (A) (A) (A) (A)
                 (A) (A) (A) (A) (A) (A) (A) (A) (A) (A) (A) (A)
                 (A) (A) (A) (A) (A) (A) (A) (A) (A) (A) (A) (A)
                 (A) (A) (A) (A) (A) (A) (A) (A) (A) (A) (A) (A)
                 (A) (A) (A) (A) (A) (A) (A) (A) (A) (A) (A) (A)
                 (A) (A) (A) (A) (A) (A) (A) (A) (A) (A) (A) (A)
                 (A) (A) (A) (A) (A) (A) (A) (A) (A) (A) (A) (A)
                 (A) (A) (A) (A) (A) (A) (A) (A) (A) (A) (A) (A)
                 (A) (A) (A) (A) (A) (A) (A) (A) (A) (A) (A) (A)
                 (A) (A) (A) (A) (A) (A) (A) (A) (A) (A) (A) (A)
                 (A) (A) (A) (A) (A) (A) (A) (A) (A) (A) (A) (A)
                 (A) (A) (A) (A) (A) (A) (A) (A) (A) (A) (A) (A)
                 (A) (A) (A) (A) (A) (A) (A) (A) (A) (A) (A) (A)
                 (A) (A) (A) (A) (A) (A) (A) (A) (A) (A) (A) (A)
                 (A) (A) (A) (A) (A) (A) (A) (A) (A) (A) (A) (A)
                 (A) (A) (A) (A) (A) (A) (A) (A) (A) (A) (A) (A)
                 (A) (A) (A) (A) (A) (A) (A) (A) (A) (A) (A) (A)
                 (A) (A) (A) (A) (A) (A) (A) (A) (A) (A) (A) (A)
                 (A) (A) (A) (A) (A) (A) (A) (A) (A) (A) (A) (A)
                 (A) (A) (A) (A) (A) (A) (A) (A) (A) (A) (A) (A)
                 (A) (A) (A) (A) (A) (A) (A) (A) (A) (A) (A) (A)
                 (A) (A) (A) (A) (A) (A) (A) (A) (A) (A) (A) (A)
                 (A) (A) (A) (A) (A) (A) (A) (A) (A) (A) (A) (A)
                 (A) (A) (A) (A) (A) (A) (A) (A) (A) (A) (A) (A)
                 (A) (A) (A) (A) (A) (A) (A) (A) (A) (A) (A) (A)
                 (A) (A) (A) (A) (A) (A) (A) (A) (A) (A) (A) (A)
                 (A) (A) (A) (A) (A) (A) (A) (A) (A) (A) (A) (A)
                 (A) (A) (A) (A) (A) (A) (A) (A) (A) (A) (A) (A)
                 (A) (A) (A) (A) (A) (A) (A) (A) (A) (A) (A) (A)
                 (A) (A) (A) (A) (A) (A) (A) (A) (A) (A) (A) (A)
                 (A) (A) (A) (A) (A) (A) (A) (A) (A) (A) (A) (A)
 The electronic state is 1-A.
 Alpha  occ. eigenvalues --  -89.04321 -89.04321 -19.22766 -19.22766 -14.48124
 Alpha  occ. eigenvalues --  -14.48124 -14.45191 -14.45191 -10.40164 -10.40164
 Alpha  occ. eigenvalues --  -10.37282 -10.37281 -10.34208 -10.34208 -10.32898
 Alpha  occ. eigenvalues --  -10.32898 -10.31454 -10.31454 -10.30211 -10.30211
 Alpha  occ. eigenvalues --  -10.29812 -10.29812 -10.29543 -10.29543 -10.29362
 Alpha  occ. eigenvalues --  -10.29362 -10.29203 -10.29157  -8.09836  -8.09836
 Alpha  occ. eigenvalues --   -6.06437  -6.06437  -6.05906  -6.05906  -6.05692
 Alpha  occ. eigenvalues --   -6.05692  -1.15285  -1.14683  -1.08376  -1.07724
 Alpha  occ. eigenvalues --   -1.07148  -1.06396  -0.95546  -0.95522  -0.92403
 Alpha  occ. eigenvalues --   -0.92148  -0.91449  -0.85972  -0.85079  -0.85051
 Alpha  occ. eigenvalues --   -0.84748  -0.81783  -0.79074  -0.77652  -0.73076
 Alpha  occ. eigenvalues --   -0.72669  -0.70816  -0.69439  -0.69157  -0.67980
 Alpha  occ. eigenvalues --   -0.65699  -0.63584  -0.62855  -0.61740  -0.58584
 Alpha  occ. eigenvalues --   -0.57782  -0.56895  -0.56417  -0.56279  -0.56262
 Alpha  occ. eigenvalues --   -0.55203  -0.55064  -0.53279  -0.52816  -0.52812
 Alpha  occ. eigenvalues --   -0.52295  -0.51840  -0.51658  -0.51403  -0.50814
 Alpha  occ. eigenvalues --   -0.48334  -0.45869  -0.45727  -0.45237  -0.45155
 Alpha  occ. eigenvalues --   -0.45141  -0.43655  -0.43439  -0.43287  -0.42966
 Alpha  occ. eigenvalues --   -0.42764  -0.38134  -0.37841  -0.37817  -0.37661
 Alpha  occ. eigenvalues --   -0.36252  -0.35050  -0.34577  -0.32679  -0.32654
 Alpha  occ. eigenvalues --   -0.31272  -0.30052  -0.25412
 Alpha virt. eigenvalues --   -0.10036  -0.05772  -0.02434   0.01263   0.01681
 Alpha virt. eigenvalues --    0.02115   0.03199   0.03290   0.03440   0.03793
 Alpha virt. eigenvalues --    0.03859   0.03979   0.04103   0.04619   0.04716
 Alpha virt. eigenvalues --    0.05315   0.05378   0.05843   0.06060   0.06884
 Alpha virt. eigenvalues --    0.07016   0.07423   0.07635   0.08340   0.08615
 Alpha virt. eigenvalues --    0.08650   0.08711   0.09413   0.09529   0.10509
 Alpha virt. eigenvalues --    0.10587   0.10824   0.10864   0.11250   0.11832
 Alpha virt. eigenvalues --    0.11867   0.12449   0.12705   0.13065   0.13315
 Alpha virt. eigenvalues --    0.13623   0.14012   0.14065   0.14678   0.14759
 Alpha virt. eigenvalues --    0.15394   0.15561   0.15961   0.15971   0.16459
 Alpha virt. eigenvalues --    0.16702   0.16760   0.17106   0.17201   0.17472
 Alpha virt. eigenvalues --    0.18022   0.18191   0.18485   0.18881   0.19215
 Alpha virt. eigenvalues --    0.19579   0.19661   0.20086   0.20095   0.20663
 Alpha virt. eigenvalues --    0.21228   0.21709   0.21742   0.21971   0.22099
 Alpha virt. eigenvalues --    0.22516   0.22688   0.22899   0.22899   0.23433
 Alpha virt. eigenvalues --    0.23772   0.24031   0.24150   0.24245   0.24349
 Alpha virt. eigenvalues --    0.24382   0.24897   0.25336   0.25752   0.25771
 Alpha virt. eigenvalues --    0.25867   0.26329   0.26468   0.26909   0.27078
 Alpha virt. eigenvalues --    0.27264   0.27268   0.27554   0.27735   0.28259
 Alpha virt. eigenvalues --    0.28864   0.28912   0.29255   0.29296   0.29558
 Alpha virt. eigenvalues --    0.29729   0.29954   0.30421   0.30425   0.31224
 Alpha virt. eigenvalues --    0.31381   0.31571   0.31702   0.32221   0.32408
 Alpha virt. eigenvalues --    0.32653   0.32739   0.33076   0.33262   0.33553
 Alpha virt. eigenvalues --    0.33660   0.34737   0.35162   0.35266   0.35751
 Alpha virt. eigenvalues --    0.35801   0.35993   0.36469   0.36610   0.37045
 Alpha virt. eigenvalues --    0.37426   0.37467   0.37980   0.38206   0.38797
 Alpha virt. eigenvalues --    0.38886   0.39288   0.39571   0.39813   0.40741
 Alpha virt. eigenvalues --    0.41453   0.42082   0.43012   0.43831   0.44127
 Alpha virt. eigenvalues --    0.44991   0.45608   0.45737   0.46537   0.47357
 Alpha virt. eigenvalues --    0.47781   0.49342   0.49654   0.50114   0.50746
 Alpha virt. eigenvalues --    0.52489   0.54795   0.54904   0.56487   0.57278
 Alpha virt. eigenvalues --    0.58949   0.59487   0.61295   0.62821   0.64196
 Alpha virt. eigenvalues --    0.65031   0.65804   0.66302   0.67513   0.69201
 Alpha virt. eigenvalues --    0.69443   0.70424   0.70693   0.71772   0.72155
 Alpha virt. eigenvalues --    0.72338   0.72417   0.73399   0.73427   0.74765
 Alpha virt. eigenvalues --    0.75447   0.75785   0.76155   0.76494   0.76540
 Alpha virt. eigenvalues --    0.77010   0.77478   0.77621   0.77972   0.78563
 Alpha virt. eigenvalues --    0.78919   0.79314   0.80230   0.80262   0.80739
 Alpha virt. eigenvalues --    0.81231   0.82243   0.83000   0.83026   0.83191
 Alpha virt. eigenvalues --    0.83563   0.83860   0.84560   0.85094   0.85680
 Alpha virt. eigenvalues --    0.87638   0.87652   0.89267   0.90121   0.90487
 Alpha virt. eigenvalues --    0.92332   0.93602   0.93656   0.95137   0.95837
 Alpha virt. eigenvalues --    0.96284   0.97216   0.97634   0.98376   0.98429
 Alpha virt. eigenvalues --    0.99558   1.00121   1.00318   1.01182   1.01448
 Alpha virt. eigenvalues --    1.03190   1.03359   1.04481   1.05025   1.05458
 Alpha virt. eigenvalues --    1.06866   1.07229   1.08133   1.08945   1.09543
 Alpha virt. eigenvalues --    1.10258   1.10274   1.11595   1.12047   1.12324
 Alpha virt. eigenvalues --    1.12443   1.14641   1.14684   1.15048   1.15613
 Alpha virt. eigenvalues --    1.16738   1.17336   1.17360   1.18146   1.18583
 Alpha virt. eigenvalues --    1.20280   1.21054   1.21844   1.22251   1.22943
 Alpha virt. eigenvalues --    1.23874   1.24117   1.24639   1.25526   1.26082
 Alpha virt. eigenvalues --    1.28317   1.28877   1.29562   1.29752   1.30161
 Alpha virt. eigenvalues --    1.30888   1.31890   1.32219   1.32415   1.34326
 Alpha virt. eigenvalues --    1.35023   1.35375   1.35756   1.36989   1.37942
 Alpha virt. eigenvalues --    1.39468   1.39474   1.39807   1.41365   1.41726
 Alpha virt. eigenvalues --    1.41984   1.42117   1.42946   1.43671   1.44095
 Alpha virt. eigenvalues --    1.44120   1.44672   1.44756   1.44922   1.46053
 Alpha virt. eigenvalues --    1.46349   1.46756   1.46947   1.47448   1.49001
 Alpha virt. eigenvalues --    1.49225   1.49360   1.50020   1.51712   1.52047
 Alpha virt. eigenvalues --    1.53410   1.55993   1.56704   1.58468   1.63478
 Alpha virt. eigenvalues --    1.63591   1.68177   1.69654   1.69760   1.73875
 Alpha virt. eigenvalues --    1.74646   1.77197   1.77239   1.81011   1.81193
 Alpha virt. eigenvalues --    1.81773   1.83408   1.84955   1.86244   1.86680
 Alpha virt. eigenvalues --    1.87518   1.87630   1.88278   1.89536   1.90243
 Alpha virt. eigenvalues --    1.90893   1.91862   1.92139   1.92142   1.92757
 Alpha virt. eigenvalues --    1.94133   1.94981   1.95705   1.96188   1.97221
 Alpha virt. eigenvalues --    1.98428   1.99669   1.99742   2.00247   2.00672
 Alpha virt. eigenvalues --    2.01084   2.01841   2.04050   2.04076   2.05280
 Alpha virt. eigenvalues --    2.05311   2.05887   2.07381   2.08091   2.09117
 Alpha virt. eigenvalues --    2.09783   2.10897   2.11499   2.12004   2.12166
 Alpha virt. eigenvalues --    2.13471   2.15459   2.17213   2.17726   2.21645
 Alpha virt. eigenvalues --    2.21905   2.24389   2.24560   2.25888   2.27067
 Alpha virt. eigenvalues --    2.30120   2.30168   2.31396   2.31836   2.33143
 Alpha virt. eigenvalues --    2.35247   2.36356   2.37050   2.40804   2.41181
 Alpha virt. eigenvalues --    2.41628   2.42059   2.42295   2.42534   2.43344
 Alpha virt. eigenvalues --    2.43960   2.44339   2.45397   2.45520   2.47430
 Alpha virt. eigenvalues --    2.48377   2.49868   2.50677   2.52261   2.52887
 Alpha virt. eigenvalues --    2.54334   2.55008   2.55379   2.56460   2.56908
 Alpha virt. eigenvalues --    2.57820   2.58204   2.60259   2.62034   2.62049
 Alpha virt. eigenvalues --    2.63172   2.64434   2.64438   2.64785   2.66056
 Alpha virt. eigenvalues --    2.67336   2.67589   2.67896   2.68376   2.70649
 Alpha virt. eigenvalues --    2.71627   2.71808   2.73759   2.74595   2.78965
 Alpha virt. eigenvalues --    2.79171   2.82053   2.82171   2.82659   2.83146
 Alpha virt. eigenvalues --    2.84150   2.85814   2.86317   2.86579   2.90529
 Alpha virt. eigenvalues --    2.91409   2.94634   2.99703   3.00931   3.03220
 Alpha virt. eigenvalues --    3.03277   3.05206   3.10013   3.10096   3.11908
 Alpha virt. eigenvalues --    3.12071   3.18566   3.20201   3.21184   3.25772
 Alpha virt. eigenvalues --    3.26050   3.32552   3.32667   3.33081   3.33239
 Alpha virt. eigenvalues --    3.37363   3.40829   3.41518   3.41632   3.44041
 Alpha virt. eigenvalues --    3.49745   3.55473   3.55740   3.62052   3.62220
 Alpha virt. eigenvalues --    3.89929   3.89946   4.05126   4.05320   4.18136
 Alpha virt. eigenvalues --    4.19089   4.30060   4.33911   4.34077   4.36647
 Alpha virt. eigenvalues --    4.36955   4.37922   4.40279   4.40806   4.43788
 Alpha virt. eigenvalues --    4.44737   4.46814   4.48227   4.49757   4.56413
 Alpha virt. eigenvalues --    4.57137   4.57312   4.58536   4.65775   4.74137
 Alpha virt. eigenvalues --    4.82784   4.92206   4.92256   5.04762   5.11789
          Condensed to atoms (all electrons):
              1          2          3          4          5          6
     1  N    7.411560   0.298672   0.029114   0.115004  -0.225044  -0.096371
     2  C    0.298672   8.908633  -0.191540  -1.205261  -2.749800   0.070670
     3  C    0.029114  -0.191540  12.421253   2.159171  -5.891173  -2.419349
     4  C    0.115004  -1.205261   2.159171  18.361680  -2.416874  -5.891134
     5  C   -0.225044  -2.749800  -5.891173  -2.416874  18.361631   2.159093
     6  C   -0.096371   0.070670  -2.419349  -5.891134   2.159093  12.421200
     7  C   -0.061312  -0.018104   0.070636  -2.749828  -1.205176  -0.191497
     8  N    0.003300  -0.061312  -0.096379  -0.225051   0.115005   0.029115
     9  O   -0.091799   0.250670  -0.049468  -0.027998  -0.014974   0.064817
    10  O   -0.003504   0.016104   0.064816  -0.014975  -0.027997  -0.049468
    11  H    0.000532   0.005068  -0.006743   0.078489   0.035427  -0.061179
    12  H    0.311487  -0.047837  -0.061179   0.035428   0.078490  -0.006742
    13  C   -0.028495   0.476397  -0.336931  -0.840720  -1.959780   1.493586
    14  C   -0.013470   0.030230   0.381582  -0.921309   0.381239  -1.527745
    15  C    0.014697  -0.397450   0.210756   1.101525   0.872846  -1.386873
    16  H    0.000001  -0.000250  -0.001010  -0.008319  -0.000809  -0.004788
    17  C    0.001266   0.045495  -0.026900  -0.208577  -0.039704   0.026423
    18  H    0.000000   0.000009   0.000018   0.000159  -0.000025  -0.002037
    19  C   -0.000183  -0.011458   0.007881   0.030561   0.005655  -0.124947
    20  H    0.000000   0.000002   0.000000  -0.000015   0.000029   0.000024
    21  C   -0.000650   0.106983  -0.060218  -0.142658  -0.446683   1.163590
    22  C   -0.104118   0.052761  -0.394759  -0.808704   0.057602   0.717961
    23  S    0.026541  -0.276150   0.136508   0.449588   0.397603  -0.696846
    24  N    0.001509   0.014151   0.011398   0.026604   0.087181  -0.093158
    25  C   -0.151218   0.079175   1.493618  -1.959770  -0.840755  -0.336942
    26  C   -0.108621  -0.103236  -1.527726   0.381209  -0.921327   0.381567
    27  C    0.180208  -0.161122  -1.386888   0.872834   1.101554   0.210766
    28  H   -0.007584   0.013980  -0.004787  -0.000809  -0.008320  -0.001010
    29  C    0.043819   0.161589   0.026419  -0.039695  -0.208564  -0.026898
    30  H    0.000405   0.000018  -0.002037  -0.000025   0.000159   0.000018
    31  C    0.003710  -0.017317  -0.124943   0.005651   0.030562   0.007881
    32  H    0.000008  -0.000013   0.000024   0.000029  -0.000015   0.000000
    33  C   -0.051071   0.061216   1.163583  -0.446671  -0.142667  -0.060219
    34  C   -0.138140   0.167078   0.717944   0.057620  -0.808677  -0.394748
    35  S    0.043845   0.041163  -0.696843   0.397589   0.449594   0.136509
    36  N    0.004179  -0.004312  -0.093157   0.087178   0.026607   0.011398
    37  H    0.000000  -0.000040   0.000002   0.000009   0.000021  -0.000369
    38  H    0.000001   0.000003  -0.000369   0.000021   0.000009   0.000002
              7          8          9         10         11         12
     1  N   -0.061312   0.003300  -0.091799  -0.003504   0.000532   0.311487
     2  C   -0.018104  -0.061312   0.250670   0.016104   0.005068  -0.047837
     3  C    0.070636  -0.096379  -0.049468   0.064816  -0.006743  -0.061179
     4  C   -2.749828  -0.225051  -0.027998  -0.014975   0.078489   0.035428
     5  C   -1.205176   0.115005  -0.014974  -0.027997   0.035427   0.078490
     6  C   -0.191497   0.029115   0.064817  -0.049468  -0.061179  -0.006742
     7  C    8.908572   0.298679   0.016104   0.250672  -0.047836   0.005068
     8  N    0.298679   7.411561  -0.003504  -0.091799   0.311486   0.000532
     9  O    0.016104  -0.003504   8.403161   0.000007  -0.000019   0.002542
    10  O    0.250672  -0.091799   0.000007   8.403157   0.002542  -0.000019
    11  H   -0.047836   0.311486  -0.000019   0.002542   0.390372   0.000000
    12  H    0.005068   0.000532   0.002542  -0.000019   0.000000   0.390372
    13  C    0.079168  -0.151216  -0.031324   0.000957  -0.026926  -0.000052
    14  C   -0.103246  -0.108620  -0.008142   0.026155  -0.087528  -0.000511
    15  C   -0.161120   0.180210   0.015408  -0.017732   0.059085   0.000030
    16  H    0.013979  -0.007584   0.000000   0.000191   0.005618   0.000000
    17  C    0.161595   0.043816  -0.000626  -0.004756   0.028448   0.000003
    18  H    0.000018   0.000405   0.000000   0.000001  -0.000010   0.000000
    19  C   -0.017318   0.003710   0.000157   0.000080   0.000259   0.000000
    20  H   -0.000013   0.000008   0.000000   0.000000   0.000000   0.000000
    21  C    0.061216  -0.051071  -0.001436  -0.000544  -0.000346  -0.000001
    22  C    0.167086  -0.138137  -0.019410  -0.002508   0.002258  -0.001802
    23  S    0.041162   0.043845   0.028413  -0.002240   0.001262   0.000666
    24  N   -0.004312   0.004179   0.003749   0.000025   0.000171   0.000000
    25  C    0.476367  -0.028494   0.000956  -0.031321  -0.000052  -0.026928
    26  C    0.030235  -0.013471   0.026154  -0.008144  -0.000511  -0.087532
    27  C   -0.397428   0.014697  -0.017731   0.015406   0.000030   0.059089
    28  H   -0.000250   0.000001   0.000191   0.000000   0.000000   0.005619
    29  C    0.045489   0.001266  -0.004756  -0.000626   0.000003   0.028448
    30  H    0.000009   0.000000   0.000001   0.000000   0.000000  -0.000010
    31  C   -0.011456  -0.000183   0.000080   0.000157   0.000000   0.000259
    32  H    0.000002   0.000000   0.000000   0.000000   0.000000   0.000000
    33  C    0.106976  -0.000650  -0.000544  -0.001436  -0.000001  -0.000346
    34  C    0.052739  -0.104116  -0.002508  -0.019405  -0.001802   0.002259
    35  S   -0.276133   0.026540  -0.002240   0.028409   0.000666   0.001263
    36  N    0.014153   0.001509   0.000025   0.003748   0.000000   0.000171
    37  H    0.000003   0.000001   0.000000   0.000000   0.000000   0.000000
    38  H   -0.000040   0.000000   0.000000   0.000000   0.000000   0.000000
             13         14         15         16         17         18
     1  N   -0.028495  -0.013470   0.014697   0.000001   0.001266   0.000000
     2  C    0.476397   0.030230  -0.397450  -0.000250   0.045495   0.000009
     3  C   -0.336931   0.381582   0.210756  -0.001010  -0.026900   0.000018
     4  C   -0.840720  -0.921309   1.101525  -0.008319  -0.208577   0.000159
     5  C   -1.959780   0.381239   0.872846  -0.000809  -0.039704  -0.000025
     6  C    1.493586  -1.527745  -1.386873  -0.004788   0.026423  -0.002037
     7  C    0.079168  -0.103246  -0.161120   0.013979   0.161595   0.000018
     8  N   -0.151216  -0.108620   0.180210  -0.007584   0.043816   0.000405
     9  O   -0.031324  -0.008142   0.015408   0.000000  -0.000626   0.000000
    10  O    0.000957   0.026155  -0.017732   0.000191  -0.004756   0.000001
    11  H   -0.026926  -0.087528   0.059085   0.005618   0.028448  -0.000010
    12  H   -0.000052  -0.000511   0.000030   0.000000   0.000003   0.000000
    13  C   28.583221   0.148392 -11.766891   0.055545  -0.403382   0.011083
    14  C    0.148392  22.761240  -9.655098   0.084929   0.261830   0.008334
    15  C  -11.766891  -9.655098  29.117472   0.120001  -5.831628   0.055751
    16  H    0.055545   0.084929   0.120001   0.575893   0.095973  -0.005444
    17  C   -0.403382   0.261830  -5.831628   0.095973  10.915679   0.249948
    18  H    0.011083   0.008334   0.055751  -0.005444   0.249948   0.545547
    19  C    0.406781  -1.205568   1.312448  -0.007338  -0.226412   0.012033
    20  H    0.012077   0.007442   0.022476  -0.000147   0.000369  -0.004628
    21  C    0.341687  -4.366062  -4.479079  -0.005215   1.013042  -0.006734
    22  C   -3.900832  -2.742104   3.949976  -0.036244   0.068937  -0.007749
    23  S   -3.425365   0.463811   2.030139  -0.001384   0.000558  -0.000100
    24  N   -1.252652   0.531774   0.574782  -0.001155   0.028627   0.000182
    25  C    0.003807   0.005037  -0.007042  -0.000001  -0.000353   0.000000
    26  C    0.005037   0.063655  -0.014307  -0.000011  -0.001663   0.000000
    27  C   -0.007042  -0.014306   0.008873   0.000001   0.000870   0.000000
    28  H   -0.000001  -0.000011   0.000001   0.000000   0.000000   0.000000
    29  C   -0.000353  -0.001663   0.000870   0.000000   0.000101   0.000000
    30  H    0.000000   0.000000   0.000000   0.000000   0.000000   0.000000
    31  C   -0.000055   0.000125   0.000014   0.000000  -0.000003   0.000000
    32  H    0.000000   0.000000   0.000000   0.000000   0.000000   0.000000
    33  C    0.000274  -0.000399  -0.000377   0.000000   0.000002   0.000000
    34  C    0.009709   0.061945  -0.027233  -0.000080  -0.005028   0.000001
    35  S   -0.002341  -0.013158   0.007100   0.000059   0.002062   0.000000
    36  N   -0.000045  -0.000051   0.000157   0.000000   0.000010   0.000000
    37  H    0.060995   0.053431  -0.013034   0.000013   0.002018  -0.000129
    38  H    0.000000   0.000000   0.000000   0.000000   0.000000   0.000000
             19         20         21         22         23         24
     1  N   -0.000183   0.000000  -0.000650  -0.104118   0.026541   0.001509
     2  C   -0.011458   0.000002   0.106983   0.052761  -0.276150   0.014151
     3  C    0.007881   0.000000  -0.060218  -0.394759   0.136508   0.011398
     4  C    0.030561  -0.000015  -0.142658  -0.808704   0.449588   0.026604
     5  C    0.005655   0.000029  -0.446683   0.057602   0.397603   0.087181
     6  C   -0.124947   0.000024   1.163590   0.717961  -0.696846  -0.093158
     7  C   -0.017318  -0.000013   0.061216   0.167086   0.041162  -0.004312
     8  N    0.003710   0.000008  -0.051071  -0.138137   0.043845   0.004179
     9  O    0.000157   0.000000  -0.001436  -0.019410   0.028413   0.003749
    10  O    0.000080   0.000000  -0.000544  -0.002508  -0.002240   0.000025
    11  H    0.000259   0.000000  -0.000346   0.002258   0.001262   0.000171
    12  H    0.000000   0.000000  -0.000001  -0.001802   0.000666   0.000000
    13  C    0.406781   0.012077   0.341687  -3.900832  -3.425365  -1.252652
    14  C   -1.205568   0.007442  -4.366062  -2.742104   0.463811   0.531774
    15  C    1.312448   0.022476  -4.479079   3.949976   2.030139   0.574782
    16  H   -0.007338  -0.000147  -0.005215  -0.036244  -0.001384  -0.001155
    17  C   -0.226412   0.000369   1.013042   0.068937   0.000558   0.028627
    18  H    0.012033  -0.004628  -0.006734  -0.007749  -0.000100   0.000182
    19  C    5.933710   0.274158   0.190162  -0.212964  -0.056221  -0.022362
    20  H    0.274158   0.545857  -0.000114   0.003181   0.000162  -0.000151
    21  C    0.190162  -0.000114  16.079440  -0.847910  -1.243283  -0.779030
    22  C   -0.212964   0.003181  -0.847910  10.201135  -0.149036   0.239108
    23  S   -0.056221   0.000162  -1.243283  -0.149036  16.820549   0.359246
    24  N   -0.022362  -0.000151  -0.779030   0.239108   0.359246   7.609737
    25  C   -0.000055   0.000000   0.000274   0.009708  -0.002341  -0.000045
    26  C    0.000125   0.000000  -0.000399   0.061946  -0.013158  -0.000051
    27  C    0.000014   0.000000  -0.000377  -0.027233   0.007100   0.000157
    28  H    0.000000   0.000000   0.000000  -0.000080   0.000059   0.000000
    29  C   -0.000003   0.000000   0.000002  -0.005028   0.002062   0.000010
    30  H    0.000000   0.000000   0.000000   0.000001   0.000000   0.000000
    31  C    0.000000   0.000000  -0.000003   0.000092   0.000015   0.000001
    32  H    0.000000   0.000000   0.000000   0.000000   0.000000   0.000000
    33  C   -0.000003   0.000000   0.000016  -0.001366  -0.000142  -0.000003
    34  C    0.000092   0.000000  -0.001366   0.024450  -0.006361  -0.000024
    35  S    0.000015   0.000000  -0.000142  -0.006361   0.001523   0.000019
    36  N    0.000001   0.000000  -0.000003  -0.000024   0.000019   0.000000
    37  H   -0.050461  -0.004410   0.279120  -0.001065  -0.002419  -0.010340
    38  H    0.000000   0.000000   0.000000   0.000000   0.000000   0.000000
             25         26         27         28         29         30
     1  N   -0.151218  -0.108621   0.180208  -0.007584   0.043819   0.000405
     2  C    0.079175  -0.103236  -0.161122   0.013980   0.161589   0.000018
     3  C    1.493618  -1.527726  -1.386888  -0.004787   0.026419  -0.002037
     4  C   -1.959770   0.381209   0.872834  -0.000809  -0.039695  -0.000025
     5  C   -0.840755  -0.921327   1.101554  -0.008320  -0.208564   0.000159
     6  C   -0.336942   0.381567   0.210766  -0.001010  -0.026898   0.000018
     7  C    0.476367   0.030235  -0.397428  -0.000250   0.045489   0.000009
     8  N   -0.028494  -0.013471   0.014697   0.000001   0.001266   0.000000
     9  O    0.000956   0.026154  -0.017731   0.000191  -0.004756   0.000001
    10  O   -0.031321  -0.008144   0.015406   0.000000  -0.000626   0.000000
    11  H   -0.000052  -0.000511   0.000030   0.000000   0.000003   0.000000
    12  H   -0.026928  -0.087532   0.059089   0.005619   0.028448  -0.000010
    13  C    0.003807   0.005037  -0.007042  -0.000001  -0.000353   0.000000
    14  C    0.005037   0.063655  -0.014306  -0.000011  -0.001663   0.000000
    15  C   -0.007042  -0.014307   0.008873   0.000001   0.000870   0.000000
    16  H   -0.000001  -0.000011   0.000001   0.000000   0.000000   0.000000
    17  C   -0.000353  -0.001663   0.000870   0.000000   0.000101   0.000000
    18  H    0.000000   0.000000   0.000000   0.000000   0.000000   0.000000
    19  C   -0.000055   0.000125   0.000014   0.000000  -0.000003   0.000000
    20  H    0.000000   0.000000   0.000000   0.000000   0.000000   0.000000
    21  C    0.000274  -0.000399  -0.000377   0.000000   0.000002   0.000000
    22  C    0.009708   0.061946  -0.027233  -0.000080  -0.005028   0.000001
    23  S   -0.002341  -0.013158   0.007100   0.000059   0.002062   0.000000
    24  N   -0.000045  -0.000051   0.000157   0.000000   0.000010   0.000000
    25  C   28.583414   0.148338 -11.766942   0.055545  -0.403417   0.011084
    26  C    0.148338  22.761129  -9.654803   0.084930   0.261689   0.008334
    27  C  -11.766942  -9.654803  29.116741   0.120001  -5.831201   0.055751
    28  H    0.055545   0.084930   0.120001   0.575893   0.095970  -0.005444
    29  C   -0.403417   0.261689  -5.831201   0.095970  10.915418   0.249948
    30  H    0.011084   0.008334   0.055751  -0.005444   0.249948   0.545547
    31  C    0.406834  -1.205533   1.312335  -0.007338  -0.226372   0.012032
    32  H    0.012077   0.007442   0.022475  -0.000147   0.000370  -0.004628
    33  C    0.341686  -4.366093  -4.478790  -0.005216   1.012918  -0.006734
    34  C   -3.900907  -2.742068   3.949906  -0.036243   0.068993  -0.007749
    35  S   -3.425351   0.463807   2.030086  -0.001384   0.000575  -0.000100
    36  N   -1.252647   0.531757   0.574770  -0.001155   0.028631   0.000182
    37  H    0.000000   0.000000   0.000000   0.000000   0.000000   0.000000
    38  H    0.060994   0.053430  -0.013034   0.000013   0.002018  -0.000129
             31         32         33         34         35         36
     1  N    0.003710   0.000008  -0.051071  -0.138140   0.043845   0.004179
     2  C   -0.017317  -0.000013   0.061216   0.167078   0.041163  -0.004312
     3  C   -0.124943   0.000024   1.163583   0.717944  -0.696843  -0.093157
     4  C    0.005651   0.000029  -0.446671   0.057620   0.397589   0.087178
     5  C    0.030562  -0.000015  -0.142667  -0.808677   0.449594   0.026607
     6  C    0.007881   0.000000  -0.060219  -0.394748   0.136509   0.011398
     7  C   -0.011456   0.000002   0.106976   0.052739  -0.276133   0.014153
     8  N   -0.000183   0.000000  -0.000650  -0.104116   0.026540   0.001509
     9  O    0.000080   0.000000  -0.000544  -0.002508  -0.002240   0.000025
    10  O    0.000157   0.000000  -0.001436  -0.019405   0.028409   0.003748
    11  H    0.000000   0.000000  -0.000001  -0.001802   0.000666   0.000000
    12  H    0.000259   0.000000  -0.000346   0.002259   0.001263   0.000171
    13  C   -0.000055   0.000000   0.000274   0.009709  -0.002341  -0.000045
    14  C    0.000125   0.000000  -0.000399   0.061945  -0.013158  -0.000051
    15  C    0.000014   0.000000  -0.000377  -0.027233   0.007100   0.000157
    16  H    0.000000   0.000000   0.000000  -0.000080   0.000059   0.000000
    17  C   -0.000003   0.000000   0.000002  -0.005028   0.002062   0.000010
    18  H    0.000000   0.000000   0.000000   0.000001   0.000000   0.000000
    19  C    0.000000   0.000000  -0.000003   0.000092   0.000015   0.000001
    20  H    0.000000   0.000000   0.000000   0.000000   0.000000   0.000000
    21  C   -0.000003   0.000000   0.000016  -0.001366  -0.000142  -0.000003
    22  C    0.000092   0.000000  -0.001366   0.024450  -0.006361  -0.000024
    23  S    0.000015   0.000000  -0.000142  -0.006361   0.001523   0.000019
    24  N    0.000001   0.000000  -0.000003  -0.000024   0.000019   0.000000
    25  C    0.406834   0.012077   0.341686  -3.900907  -3.425351  -1.252647
    26  C   -1.205533   0.007442  -4.366093  -2.742068   0.463807   0.531757
    27  C    1.312335   0.022475  -4.478790   3.949906   2.030086   0.574770
    28  H   -0.007338  -0.000147  -0.005216  -0.036243  -0.001384  -0.001155
    29  C   -0.226372   0.000370   1.012918   0.068993   0.000575   0.028631
    30  H    0.012032  -0.004628  -0.006734  -0.007749  -0.000100   0.000182
    31  C    5.933695   0.274158   0.190201  -0.212990  -0.056231  -0.022363
    32  H    0.274158   0.545857  -0.000113   0.003181   0.000163  -0.000151
    33  C    0.190201  -0.000113  16.079116  -0.847823  -1.243239  -0.779000
    34  C   -0.212990   0.003181  -0.847823  10.201110  -0.149024   0.239105
    35  S   -0.056231   0.000163  -1.243239  -0.149024  16.820523   0.359240
    36  N   -0.022363  -0.000151  -0.779000   0.239105   0.359240   7.609732
    37  H    0.000000   0.000000   0.000000   0.000000   0.000000   0.000000
    38  H   -0.050460  -0.004410   0.279122  -0.001065  -0.002419  -0.010340
             37         38
     1  N    0.000000   0.000001
     2  C   -0.000040   0.000003
     3  C    0.000002  -0.000369
     4  C    0.000009   0.000021
     5  C    0.000021   0.000009
     6  C   -0.000369   0.000002
     7  C    0.000003  -0.000040
     8  N    0.000001   0.000000
     9  O    0.000000   0.000000
    10  O    0.000000   0.000000
    11  H    0.000000   0.000000
    12  H    0.000000   0.000000
    13  C    0.060995   0.000000
    14  C    0.053431   0.000000
    15  C   -0.013034   0.000000
    16  H    0.000013   0.000000
    17  C    0.002018   0.000000
    18  H   -0.000129   0.000000
    19  C   -0.050461   0.000000
    20  H   -0.004410   0.000000
    21  C    0.279120   0.000000
    22  C   -0.001065   0.000000
    23  S   -0.002419   0.000000
    24  N   -0.010340   0.000000
    25  C    0.000000   0.060994
    26  C    0.000000   0.053430
    27  C    0.000000  -0.013034
    28  H    0.000000   0.000013
    29  C    0.000000   0.002018
    30  H    0.000000  -0.000129
    31  C    0.000000  -0.050460
    32  H    0.000000  -0.004410
    33  C    0.000000   0.279122
    34  C    0.000000  -0.001065
    35  S    0.000000  -0.002419
    36  N    0.000000  -0.010340
    37  H    0.529259   0.000000
    38  H    0.000000   0.529259
 Mulliken atomic charges:
              1
     1  N   -0.408279
     2  C    0.445135
     3  C    0.477677
     4  C   -0.251957
     5  C   -0.251945
     6  C    0.477699
     7  C    0.445143
     8  N   -0.408278
     9  O   -0.535955
    10  O   -0.535953
    11  H    0.311235
    12  H    0.311235
    13  C   -1.554315
    14  C    1.497841
    15  C    0.103243
    16  H    0.127576
    17  C   -0.198041
    18  H    0.143366
    19  C   -0.242551
    20  H    0.143694
    21  C   -0.802209
    22  C   -0.148769
    23  S    1.064214
    24  N   -0.329326
    25  C   -1.554336
    26  C    1.497869
    27  C    0.103232
    28  H    0.127575
    29  C   -0.198032
    30  H    0.143365
    31  C   -0.242553
    32  H    0.143694
    33  C   -0.802208
    34  C   -0.148774
    35  S    1.064218
    36  N   -0.329324
    37  H    0.157396
    38  H    0.157396
 Sum of Mulliken atomic charges =   0.00000
 Mulliken charges with hydrogens summed into heavy atoms:
              1
     1  N   -0.097044
     2  C    0.445135
     3  C    0.477677
     4  C   -0.251957
     5  C   -0.251945
     6  C    0.477699
     7  C    0.445143
     8  N   -0.097042
     9  O   -0.535955
    10  O   -0.535953
    13  C   -1.554315
    14  C    1.497841
    15  C    0.230818
    17  C   -0.054676
    19  C   -0.098856
    21  C   -0.644813
    22  C   -0.148769
    23  S    1.064214
    24  N   -0.329326
    25  C   -1.554336
    26  C    1.497869
    27  C    0.230807
    29  C   -0.054667
    31  C   -0.098858
    33  C   -0.644812
    34  C   -0.148774
    35  S    1.064218
    36  N   -0.329324
 Sum of Mulliken charges with hydrogens summed into heavy atoms =   0.00000
 Electronic spatial extent (au):  <R**2>=          15445.1293
 Charge=              0.0000 electrons
 Dipole moment (field-independent basis, Debye):
    X=              0.0000    Y=              0.0000    Z=              1.2891  Tot=              1.2891
 Quadrupole moment (field-independent basis, Debye-Ang):
   XX=           -141.8319   YY=           -188.6354   ZZ=           -176.1185
   XY=            -33.4190   XZ=              0.0001   YZ=              0.0000
 Traceless Quadrupole moment (field-independent basis, Debye-Ang):
   XX=             27.0301   YY=            -19.7735   ZZ=             -7.2566
   XY=            -33.4190   XZ=              0.0001   YZ=              0.0000
 Octapole moment (field-independent basis, Debye-Ang**2):
  XXX=              0.0004  YYY=             -0.0003  ZZZ=            -13.3979  XYY=              0.0004
  XXY=             -0.0003  XXZ=             76.0981  XZZ=             -0.0002  YZZ=              0.0001
  YYZ=             17.1794  XYZ=            -18.6242
 Hexadecapole moment (field-independent basis, Debye-Ang**3):
 XXXX=         -16131.5908 YYYY=          -2891.3865 ZZZZ=           -495.2488 XXXY=           -842.3399
 XXXZ=             -0.0012 YYYX=           -241.7655 YYYZ=             -0.0003 ZZZX=             -0.0003
 ZZZY=              0.0001 XXYY=          -3501.8843 XXZZ=          -3313.4051 YYZZ=           -515.8812
 XXYZ=              0.0005 YYXZ=              0.0005 ZZXY=             -7.2785
 N-N= 2.639662169231D+03 E-N=-9.810995440770D+03  KE= 1.920154546905D+03
 1\1\GINC-DLT05\SP\RTD-CAM-B3LYP-FC\6-31+G(d,p)\C20H10N4O2S2\NATHALIA.R
 OSA\11-Aug-2019\0\\# td=(nstates=10) cam-b3lyp/6-31+g(d,p) geom=connec
 tivity\\Energy:\\0,1\N,0,1.452167,-1.548609,-0.169803\C,0,0.055367,-1.
 813118,-0.242823\C,0,1.746381,-0.184711,-0.203885\C,0,0.527214,0.47838
 9,-0.263054\C,0,-0.527214,-0.47838,-0.263055\C,0,-1.746381,0.184716,-0
 .203887\C,0,-0.05537,1.813127,-0.242819\N,0,-1.45217,1.548614,-0.16979
 6\O,0,-0.431881,-2.934805,-0.296645\O,0,0.431875,2.934814,-0.296644\H,
 0,-2.123189,2.286168,-0.326266\H,0,2.123187,-2.286165,-0.326257\C,0,-5
 .397842,-0.609498,0.028047\C,0,-4.2934,0.308732,0.201104\C,0,-4.558563
 ,1.608077,0.722505\H,0,-3.753941,2.302133,0.936398\C,0,-5.856113,1.968
 508,1.007721\H,0,-6.058001,2.955689,1.412196\C,0,-6.944776,1.0686,0.80
 0134\H,0,-7.952344,1.39727,1.035981\C,0,-6.731303,-0.202142,0.327983\C
 ,0,-3.084353,-0.327889,-0.16216\S,0,-3.461077,-1.958445,-0.62984\N,0,-
 5.088768,-1.838469,-0.413517\C,0,5.397843,0.609494,0.028049\C,0,4.2933
 99,-0.308733,0.201111\C,0,4.558561,-1.608079,0.722509\H,0,3.75394,-2.3
 02135,0.936405\C,0,5.856112,-1.968514,1.007719\H,0,6.057998,-2.955696,
 1.412189\C,0,6.944776,-1.068607,0.80013\H,0,7.952344,-1.397281,1.03597
 4\C,0,6.731303,0.202136,0.327983\C,0,3.084353,0.32789,-0.162154\S,0,3.
 461081,1.958443,-0.629838\N,0,5.088772,1.838464,-0.413522\H,0,-7.54068
 3,-0.90928,0.182022\H,0,7.540684,0.909273,0.182021\\Version=EM64L-G09R
 evA.02\State=1-A\HF=-1933.435116\RMSD=7.411e-09\PG=C01 [X(C20H10N4O2S2
 )]\\@


 THE LENGTH OF A MEETING IS PROPORTIONAL TO THE
 SQUARE OF THE PARTICIPANTS.
 Job cpu time:  0 days  3 hours 58 minutes 18.3 seconds.
 File lengths (MBytes):  RWF=    785 Int=      0 D2E=      0 Chk=    123 Scr=      1
 Normal termination of Gaussian 09 at Sun Aug 11 09:53:00 2019.
