 Entering Link 1 = C:\G09W\l1.exe PID=      5848.
  
 Copyright (c) 1988,1990,1992,1993,1995,1998,2003,2009,2010,
            Gaussian, Inc.  All Rights Reserved.
  
 This is part of the Gaussian(R) 09 program.  It is based on
 the Gaussian(R) 03 system (copyright 2003, Gaussian, Inc.),
 the Gaussian(R) 98 system (copyright 1998, Gaussian, Inc.),
 the Gaussian(R) 94 system (copyright 1995, Gaussian, Inc.),
 the Gaussian 92(TM) system (copyright 1992, Gaussian, Inc.),
 the Gaussian 90(TM) system (copyright 1990, Gaussian, Inc.),
 the Gaussian 88(TM) system (copyright 1988, Gaussian, Inc.),
 the Gaussian 86(TM) system (copyright 1986, Carnegie Mellon
 University), and the Gaussian 82(TM) system (copyright 1983,
 Carnegie Mellon University). Gaussian is a federally registered
 trademark of Gaussian, Inc.
  
 This software contains proprietary and confidential information,
 including trade secrets, belonging to Gaussian, Inc.
  
 This software is provided under written license and may be
 used, copied, transmitted, or stored only in accord with that
 written license.
  
 The following legend is applicable only to US Government
 contracts under FAR:
  
                    RESTRICTED RIGHTS LEGEND
  
 Use, reproduction and disclosure by the US Government is
 subject to restrictions as set forth in subparagraphs (a)
 and (c) of the Commercial Computer Software - Restricted
 Rights clause in FAR 52.227-19.
  
 Gaussian, Inc.
 340 Quinnipiac St., Bldg. 40, Wallingford CT 06492
  
  
 ---------------------------------------------------------------
 Warning -- This program may not be used in any manner that
 competes with the business of Gaussian, Inc. or will provide
 assistance to any competitor of Gaussian, Inc.  The licensee
 of this program is prohibited from giving any competitor of
 Gaussian, Inc. access to this program.  By using this program,
 the user acknowledges that Gaussian, Inc. is engaged in the
 business of creating and licensing software in the field of
 computational chemistry and represents and warrants to the
 licensee that it is not a competitor of Gaussian, Inc. and that
 it will not use this program in any manner prohibited above.
 ---------------------------------------------------------------
  

 Cite this work as:
 Gaussian 09, Revision B.01,
 M. J. Frisch, G. W. Trucks, H. B. Schlegel, G. E. Scuseria, 
 M. A. Robb, J. R. Cheeseman, G. Scalmani, V. Barone, B. Mennucci, 
 G. A. Petersson, H. Nakatsuji, M. Caricato, X. Li, H. P. Hratchian, 
 A. F. Izmaylov, J. Bloino, G. Zheng, J. L. Sonnenberg, M. Hada, 
 M. Ehara, K. Toyota, R. Fukuda, J. Hasegawa, M. Ishida, T. Nakajima, 
 Y. Honda, O. Kitao, H. Nakai, T. Vreven, J. A. Montgomery, Jr., 
 J. E. Peralta, F. Ogliaro, M. Bearpark, J. J. Heyd, E. Brothers, 
 K. N. Kudin, V. N. Staroverov, T. Keith, R. Kobayashi, J. Normand, 
 K. Raghavachari, A. Rendell, J. C. Burant, S. S. Iyengar, J. Tomasi, 
 M. Cossi, N. Rega, J. M. Millam, M. Klene, J. E. Knox, J. B. Cross, 
 V. Bakken, C. Adamo, J. Jaramillo, R. Gomperts, R. E. Stratmann, 
 O. Yazyev, A. J. Austin, R. Cammi, C. Pomelli, J. W. Ochterski, 
 R. L. Martin, K. Morokuma, V. G. Zakrzewski, G. A. Voth, 
 P. Salvador, J. J. Dannenberg, S. Dapprich, A. D. Daniels, 
 O. Farkas, J. B. Foresman, J. V. Ortiz, J. Cioslowski, 
 and D. J. Fox, Gaussian, Inc., Wallingford CT, 2010.
 
 ******************************************
 Gaussian 09:  IA32W-G09RevB.01 12-Aug-2010
                04-Sep-2023 
 ******************************************
 %nprocshared=6
 Will use up to    6 processors via shared memory.
 %chk=G:\Meu Drive\POS-DOC-IME\SUBSTITUINTES-DOADORES\DPP-substituido\DPP-SUB-5b\
 DPP-SUB-5B-OPT-FREQ.chk
 ----------------------------------------------------
 # opt=tight freq b3lyp/6-31+g(d,p) geom=connectivity
 ----------------------------------------------------
 1/7=10,14=-1,18=20,19=15,26=3,38=1,57=2/1,3;
 2/9=110,12=2,17=6,18=5,40=1/2;
 3/5=1,6=6,7=111,11=2,16=1,25=1,30=1,71=1,74=-5/1,2,3;
 4//1;
 5/5=2,38=5/2;
 6/7=2,8=2,9=2,10=2,28=1/1;
 7//1,2,3,16;
 1/7=10,14=-1,18=20,19=15/3(2);
 2/9=110/2;
 99//99;
 2/9=110/2;
 3/5=1,6=6,7=111,11=2,16=1,25=1,30=1,71=1,74=-5/1,2,3;
 4/5=5,16=3/1;
 5/5=2,38=5/2;
 7//1,2,3,16;
 1/7=10,14=-1,18=20,19=15/3(-5);
 2/9=110/2;
 6/7=2,8=2,9=2,10=2,19=2,28=1/1;
 99/9=1/99;
 -------
 Energy:
 -------
 Symbolic Z-matrix:
 Charge =  0 Multiplicity = 1
 N                    -1.4505    1.55481  -0.24996 
 C                    -0.05241   1.81709  -0.31383 
 C                    -1.7436    0.19064  -0.21715 
 C                    -0.52405  -0.47368  -0.21987 
 C                     0.5309    0.48308  -0.25119 
 C                     1.74655  -0.17547  -0.12612 
 C                     0.05692  -1.80514  -0.113 
 N                     1.45194  -1.53594  -0.02576 
 O                     0.4338    2.93486  -0.42167 
 O                    -0.43006  -2.92828  -0.11469 
 H                     2.12818  -2.27921  -0.12348 
 H                    -2.11863   2.28153  -0.46054 
 C                     5.38723   0.63401   0.19718 
 C                     4.26902  -0.25911   0.40791 
 C                     4.49352  -1.49483   1.08102 
 H                     3.67104  -2.15995   1.31869 
 C                     5.77017  -1.82309   1.477 
 H                     5.94255  -2.76057   1.99692 
 C                     6.87518  -0.95186   1.2343 
 H                     7.86548  -1.25389   1.56139 
 C                     6.69877   0.25978   0.61437 
 C                     3.08662   0.33422  -0.08862 
 S                     3.49689   1.90354  -0.70615 
 N                     5.1106    1.80771  -0.39217 
 C                    -5.39394  -0.59995   0.04209 
 C                    -4.28498   0.31167   0.22096 
 C                    -4.53957   1.6       0.77406 
 H                    -3.73001   2.28702   0.99208 
 C                    -5.83228   1.95709   1.08422 
 H                    -6.0263    2.93557   1.51297 
 C                    -6.92598   1.06454   0.87117 
 H                    -7.92947   1.39033   1.12751 
 C                    -6.72228  -0.196     0.36834 
 C                    -3.08237  -0.31992  -0.17088 
 S                    -3.46904  -1.93886  -0.66889 
 N                    -5.09365  -1.81979  -0.42989 
 H                     7.52086   0.94502   0.43817 
 H                    -7.5355   -0.8977    0.21755 
 

 GradGradGradGradGradGradGradGradGradGradGradGradGradGradGradGradGradGrad
 Berny optimization.
 Initialization pass.
                           ----------------------------
                           !    Initial Parameters    !
                           ! (Angstroms and Degrees)  !
 --------------------------                            --------------------------
 ! Name  Definition              Value          Derivative Info.                !
 --------------------------------------------------------------------------------
 ! R1    R(1,2)                  1.4239         estimate D2E/DX2                !
 ! R2    R(1,3)                  1.3957         estimate D2E/DX2                !
 ! R3    R(1,12)                 1.0094         estimate D2E/DX2                !
 ! R4    R(2,5)                  1.4573         estimate D2E/DX2                !
 ! R5    R(2,9)                  1.2237         estimate D2E/DX2                !
 ! R6    R(3,4)                  1.3887         estimate D2E/DX2                !
 ! R7    R(3,34)                 1.4336         estimate D2E/DX2                !
 ! R8    R(4,5)                  1.4245         estimate D2E/DX2                !
 ! R9    R(4,7)                  1.4566         estimate D2E/DX2                !
 ! R10   R(5,6)                  1.3882         estimate D2E/DX2                !
 ! R11   R(6,8)                  1.3956         estimate D2E/DX2                !
 ! R12   R(6,22)                 1.4342         estimate D2E/DX2                !
 ! R13   R(7,8)                  1.4234         estimate D2E/DX2                !
 ! R14   R(7,10)                 1.2242         estimate D2E/DX2                !
 ! R15   R(8,11)                 1.0096         estimate D2E/DX2                !
 ! R16   R(13,14)                1.4465         estimate D2E/DX2                !
 ! R17   R(13,21)                1.4263         estimate D2E/DX2                !
 ! R18   R(13,24)                1.3422         estimate D2E/DX2                !
 ! R19   R(14,15)                1.425          estimate D2E/DX2                !
 ! R20   R(14,22)                1.413          estimate D2E/DX2                !
 ! R21   R(15,16)                1.0841         estimate D2E/DX2                !
 ! R22   R(15,17)                1.3764         estimate D2E/DX2                !
 ! R23   R(17,18)                1.0858         estimate D2E/DX2                !
 ! R24   R(17,19)                1.4279         estimate D2E/DX2                !
 ! R25   R(19,20)                1.0858         estimate D2E/DX2                !
 ! R26   R(19,21)                1.3724         estimate D2E/DX2                !
 ! R27   R(21,37)                1.0846         estimate D2E/DX2                !
 ! R28   R(22,23)                1.7356         estimate D2E/DX2                !
 ! R29   R(23,24)                1.6468         estimate D2E/DX2                !
 ! R30   R(25,26)                1.4467         estimate D2E/DX2                !
 ! R31   R(25,33)                1.4262         estimate D2E/DX2                !
 ! R32   R(25,36)                1.342          estimate D2E/DX2                !
 ! R33   R(26,27)                1.425          estimate D2E/DX2                !
 ! R34   R(26,34)                1.4138         estimate D2E/DX2                !
 ! R35   R(27,28)                1.0839         estimate D2E/DX2                !
 ! R36   R(27,29)                1.3765         estimate D2E/DX2                !
 ! R37   R(29,30)                1.0858         estimate D2E/DX2                !
 ! R38   R(29,31)                1.4277         estimate D2E/DX2                !
 ! R39   R(31,32)                1.0857         estimate D2E/DX2                !
 ! R40   R(31,33)                1.3723         estimate D2E/DX2                !
 ! R41   R(33,38)                1.0846         estimate D2E/DX2                !
 ! R42   R(34,35)                1.7374         estimate D2E/DX2                !
 ! R43   R(35,36)                1.6464         estimate D2E/DX2                !
 ! A1    A(2,1,3)              112.7855         estimate D2E/DX2                !
 ! A2    A(2,1,12)             120.5271         estimate D2E/DX2                !
 ! A3    A(3,1,12)             124.7222         estimate D2E/DX2                !
 ! A4    A(1,2,5)              102.8538         estimate D2E/DX2                !
 ! A5    A(1,2,9)              124.2165         estimate D2E/DX2                !
 ! A6    A(5,2,9)              132.9147         estimate D2E/DX2                !
 ! A7    A(1,3,4)              106.4446         estimate D2E/DX2                !
 ! A8    A(1,3,34)             123.0228         estimate D2E/DX2                !
 ! A9    A(4,3,34)             130.5264         estimate D2E/DX2                !
 ! A10   A(3,4,5)              109.2141         estimate D2E/DX2                !
 ! A11   A(3,4,7)              141.9395         estimate D2E/DX2                !
 ! A12   A(5,4,7)              108.6732         estimate D2E/DX2                !
 ! A13   A(2,5,4)              108.6227         estimate D2E/DX2                !
 ! A14   A(2,5,6)              142.0573         estimate D2E/DX2                !
 ! A15   A(4,5,6)              109.1422         estimate D2E/DX2                !
 ! A16   A(5,6,8)              106.5025         estimate D2E/DX2                !
 ! A17   A(5,6,22)             130.6914         estimate D2E/DX2                !
 ! A18   A(8,6,22)             122.8054         estimate D2E/DX2                !
 ! A19   A(4,7,8)              102.8563         estimate D2E/DX2                !
 ! A20   A(4,7,10)             132.834          estimate D2E/DX2                !
 ! A21   A(8,7,10)             124.2956         estimate D2E/DX2                !
 ! A22   A(6,8,7)              112.7577         estimate D2E/DX2                !
 ! A23   A(6,8,11)             124.7022         estimate D2E/DX2                !
 ! A24   A(7,8,11)             120.7482         estimate D2E/DX2                !
 ! A25   A(14,13,21)           120.4126         estimate D2E/DX2                !
 ! A26   A(14,13,24)           116.3957         estimate D2E/DX2                !
 ! A27   A(21,13,24)           123.1902         estimate D2E/DX2                !
 ! A28   A(13,14,15)           118.8465         estimate D2E/DX2                !
 ! A29   A(13,14,22)           109.6581         estimate D2E/DX2                !
 ! A30   A(15,14,22)           131.4492         estimate D2E/DX2                !
 ! A31   A(14,15,16)           121.069          estimate D2E/DX2                !
 ! A32   A(14,15,17)           119.2653         estimate D2E/DX2                !
 ! A33   A(16,15,17)           119.6235         estimate D2E/DX2                !
 ! A34   A(15,17,18)           119.4024         estimate D2E/DX2                !
 ! A35   A(15,17,19)           121.559          estimate D2E/DX2                !
 ! A36   A(18,17,19)           119.0346         estimate D2E/DX2                !
 ! A37   A(17,19,20)           119.0048         estimate D2E/DX2                !
 ! A38   A(17,19,21)           121.0618         estimate D2E/DX2                !
 ! A39   A(20,19,21)           119.9274         estimate D2E/DX2                !
 ! A40   A(13,21,19)           118.8149         estimate D2E/DX2                !
 ! A41   A(13,21,37)           118.9263         estimate D2E/DX2                !
 ! A42   A(19,21,37)           122.2571         estimate D2E/DX2                !
 ! A43   A(6,22,14)            129.9278         estimate D2E/DX2                !
 ! A44   A(6,22,23)            122.2004         estimate D2E/DX2                !
 ! A45   A(14,22,23)           107.8718         estimate D2E/DX2                !
 ! A46   A(22,23,24)            96.3833         estimate D2E/DX2                !
 ! A47   A(13,24,23)           109.6686         estimate D2E/DX2                !
 ! A48   A(26,25,33)           120.4771         estimate D2E/DX2                !
 ! A49   A(26,25,36)           116.4071         estimate D2E/DX2                !
 ! A50   A(33,25,36)           123.1143         estimate D2E/DX2                !
 ! A51   A(25,26,27)           118.7352         estimate D2E/DX2                !
 ! A52   A(25,26,34)           109.6513         estimate D2E/DX2                !
 ! A53   A(27,26,34)           131.5645         estimate D2E/DX2                !
 ! A54   A(26,27,28)           121.1766         estimate D2E/DX2                !
 ! A55   A(26,27,29)           119.3267         estimate D2E/DX2                !
 ! A56   A(28,27,29)           119.449          estimate D2E/DX2                !
 ! A57   A(27,29,30)           119.3785         estimate D2E/DX2                !
 ! A58   A(27,29,31)           121.5754         estimate D2E/DX2                !
 ! A59   A(30,29,31)           119.0416         estimate D2E/DX2                !
 ! A60   A(29,31,32)           119.0262         estimate D2E/DX2                !
 ! A61   A(29,31,33)           121.0123         estimate D2E/DX2                !
 ! A62   A(32,31,33)           119.955          estimate D2E/DX2                !
 ! A63   A(25,33,31)           118.8308         estimate D2E/DX2                !
 ! A64   A(25,33,38)           118.8996         estimate D2E/DX2                !
 ! A65   A(31,33,38)           122.2681         estimate D2E/DX2                !
 ! A66   A(3,34,26)            130.1089         estimate D2E/DX2                !
 ! A67   A(3,34,35)            122.0364         estimate D2E/DX2                !
 ! A68   A(26,34,35)           107.8428         estimate D2E/DX2                !
 ! A69   A(34,35,36)            96.3509         estimate D2E/DX2                !
 ! A70   A(25,36,35)           109.7304         estimate D2E/DX2                !
 ! D1    D(3,1,2,5)             -2.7359         estimate D2E/DX2                !
 ! D2    D(3,1,2,9)            176.0151         estimate D2E/DX2                !
 ! D3    D(12,1,2,5)          -167.5172         estimate D2E/DX2                !
 ! D4    D(12,1,2,9)            11.2338         estimate D2E/DX2                !
 ! D5    D(2,1,3,4)              1.7087         estimate D2E/DX2                !
 ! D6    D(2,1,3,34)          -179.107          estimate D2E/DX2                !
 ! D7    D(12,1,3,4)           165.7402         estimate D2E/DX2                !
 ! D8    D(12,1,3,34)          -15.0755         estimate D2E/DX2                !
 ! D9    D(1,2,5,4)              2.7031         estimate D2E/DX2                !
 ! D10   D(1,2,5,6)           -171.5487         estimate D2E/DX2                !
 ! D11   D(9,2,5,4)           -175.8867         estimate D2E/DX2                !
 ! D12   D(9,2,5,6)              9.8616         estimate D2E/DX2                !
 ! D13   D(1,3,4,5)              0.1423         estimate D2E/DX2                !
 ! D14   D(1,3,4,7)            174.4584         estimate D2E/DX2                !
 ! D15   D(34,3,4,5)          -178.9578         estimate D2E/DX2                !
 ! D16   D(34,3,4,7)            -4.6417         estimate D2E/DX2                !
 ! D17   D(1,3,34,26)          -20.0002         estimate D2E/DX2                !
 ! D18   D(1,3,34,35)          158.5863         estimate D2E/DX2                !
 ! D19   D(4,3,34,26)          158.9705         estimate D2E/DX2                !
 ! D20   D(4,3,34,35)          -22.443          estimate D2E/DX2                !
 ! D21   D(3,4,5,2)             -1.8551         estimate D2E/DX2                !
 ! D22   D(3,4,5,6)            174.4071         estimate D2E/DX2                !
 ! D23   D(7,4,5,2)           -178.1598         estimate D2E/DX2                !
 ! D24   D(7,4,5,6)             -1.8976         estimate D2E/DX2                !
 ! D25   D(3,4,7,8)           -171.775          estimate D2E/DX2                !
 ! D26   D(3,4,7,10)             9.5933         estimate D2E/DX2                !
 ! D27   D(5,4,7,8)              2.5595         estimate D2E/DX2                !
 ! D28   D(5,4,7,10)          -176.0721         estimate D2E/DX2                !
 ! D29   D(2,5,6,8)            174.5929         estimate D2E/DX2                !
 ! D30   D(2,5,6,22)            -5.1002         estimate D2E/DX2                !
 ! D31   D(4,5,6,8)              0.3591         estimate D2E/DX2                !
 ! D32   D(4,5,6,22)          -179.334          estimate D2E/DX2                !
 ! D33   D(5,6,8,7)              1.3821         estimate D2E/DX2                !
 ! D34   D(5,6,8,11)           166.1527         estimate D2E/DX2                !
 ! D35   D(22,6,8,7)          -178.8947         estimate D2E/DX2                !
 ! D36   D(22,6,8,11)          -14.1241         estimate D2E/DX2                !
 ! D37   D(5,6,22,14)          159.6497         estimate D2E/DX2                !
 ! D38   D(5,6,22,23)          -20.3876         estimate D2E/DX2                !
 ! D39   D(8,6,22,14)          -20.0002         estimate D2E/DX2                !
 ! D40   D(8,6,22,23)          159.9625         estimate D2E/DX2                !
 ! D41   D(4,7,8,6)             -2.4442         estimate D2E/DX2                !
 ! D42   D(4,7,8,11)          -167.8907         estimate D2E/DX2                !
 ! D43   D(10,7,8,6)           176.3413         estimate D2E/DX2                !
 ! D44   D(10,7,8,11)           10.8947         estimate D2E/DX2                !
 ! D45   D(21,13,14,15)          2.2244         estimate D2E/DX2                !
 ! D46   D(21,13,14,22)       -179.9685         estimate D2E/DX2                !
 ! D47   D(24,13,14,15)       -177.3412         estimate D2E/DX2                !
 ! D48   D(24,13,14,22)          0.4659         estimate D2E/DX2                !
 ! D49   D(14,13,21,19)         -0.9012         estimate D2E/DX2                !
 ! D50   D(14,13,21,37)        179.574          estimate D2E/DX2                !
 ! D51   D(24,13,21,19)        178.6339         estimate D2E/DX2                !
 ! D52   D(24,13,21,37)         -0.891          estimate D2E/DX2                !
 ! D53   D(14,13,24,23)          0.6238         estimate D2E/DX2                !
 ! D54   D(21,13,24,23)       -178.9286         estimate D2E/DX2                !
 ! D55   D(13,14,15,16)        175.7496         estimate D2E/DX2                !
 ! D56   D(13,14,15,17)         -1.8792         estimate D2E/DX2                !
 ! D57   D(22,14,15,16)         -1.4949         estimate D2E/DX2                !
 ! D58   D(22,14,15,17)       -179.1237         estimate D2E/DX2                !
 ! D59   D(13,14,22,6)         178.7077         estimate D2E/DX2                !
 ! D60   D(13,14,22,23)         -1.2592         estimate D2E/DX2                !
 ! D61   D(15,14,22,6)          -3.8551         estimate D2E/DX2                !
 ! D62   D(15,14,22,23)        176.178          estimate D2E/DX2                !
 ! D63   D(14,15,17,18)        179.5267         estimate D2E/DX2                !
 ! D64   D(14,15,17,19)          0.2662         estimate D2E/DX2                !
 ! D65   D(16,15,17,18)          1.8631         estimate D2E/DX2                !
 ! D66   D(16,15,17,19)       -177.3974         estimate D2E/DX2                !
 ! D67   D(15,17,19,20)       -179.7825         estimate D2E/DX2                !
 ! D68   D(15,17,19,21)          1.1065         estimate D2E/DX2                !
 ! D69   D(18,17,19,20)          0.9544         estimate D2E/DX2                !
 ! D70   D(18,17,19,21)       -178.1566         estimate D2E/DX2                !
 ! D71   D(17,19,21,13)         -0.7547         estimate D2E/DX2                !
 ! D72   D(17,19,21,37)        178.7535         estimate D2E/DX2                !
 ! D73   D(20,19,21,13)       -179.8576         estimate D2E/DX2                !
 ! D74   D(20,19,21,37)         -0.3494         estimate D2E/DX2                !
 ! D75   D(6,22,23,24)        -178.5205         estimate D2E/DX2                !
 ! D76   D(14,22,23,24)          1.4494         estimate D2E/DX2                !
 ! D77   D(22,23,24,13)         -1.1959         estimate D2E/DX2                !
 ! D78   D(33,25,26,27)          2.2704         estimate D2E/DX2                !
 ! D79   D(33,25,26,34)       -179.9835         estimate D2E/DX2                !
 ! D80   D(36,25,26,27)       -177.306          estimate D2E/DX2                !
 ! D81   D(36,25,26,34)          0.4401         estimate D2E/DX2                !
 ! D82   D(26,25,33,31)         -0.8772         estimate D2E/DX2                !
 ! D83   D(26,25,33,38)        179.5703         estimate D2E/DX2                !
 ! D84   D(36,25,33,31)        178.6699         estimate D2E/DX2                !
 ! D85   D(36,25,33,38)         -0.8827         estimate D2E/DX2                !
 ! D86   D(26,25,36,35)          0.5216         estimate D2E/DX2                !
 ! D87   D(33,25,36,35)       -179.0425         estimate D2E/DX2                !
 ! D88   D(25,26,27,28)        175.5165         estimate D2E/DX2                !
 ! D89   D(25,26,27,29)         -1.9576         estimate D2E/DX2                !
 ! D90   D(34,26,27,28)         -1.6461         estimate D2E/DX2                !
 ! D91   D(34,26,27,29)       -179.1203         estimate D2E/DX2                !
 ! D92   D(25,26,34,3)         177.6168         estimate D2E/DX2                !
 ! D93   D(25,26,34,35)         -1.1245         estimate D2E/DX2                !
 ! D94   D(27,26,34,3)          -5.0249         estimate D2E/DX2                !
 ! D95   D(27,26,34,35)        176.2338         estimate D2E/DX2                !
 ! D96   D(26,27,29,30)        179.5218         estimate D2E/DX2                !
 ! D97   D(26,27,29,31)          0.3093         estimate D2E/DX2                !
 ! D98   D(28,27,29,30)          2.0035         estimate D2E/DX2                !
 ! D99   D(28,27,29,31)       -177.2091         estimate D2E/DX2                !
 ! D100  D(27,29,31,32)       -179.7902         estimate D2E/DX2                !
 ! D101  D(27,29,31,33)          1.1384         estimate D2E/DX2                !
 ! D102  D(30,29,31,32)          0.9946         estimate D2E/DX2                !
 ! D103  D(30,29,31,33)       -178.0768         estimate D2E/DX2                !
 ! D104  D(29,31,33,25)         -0.8193         estimate D2E/DX2                !
 ! D105  D(29,31,33,38)        178.7173         estimate D2E/DX2                !
 ! D106  D(32,31,33,25)       -179.8822         estimate D2E/DX2                !
 ! D107  D(32,31,33,38)         -0.3455         estimate D2E/DX2                !
 ! D108  D(3,34,35,36)        -177.5872         estimate D2E/DX2                !
 ! D109  D(26,34,35,36)          1.2771         estimate D2E/DX2                !
 ! D110  D(34,35,36,25)         -1.0382         estimate D2E/DX2                !
 --------------------------------------------------------------------------------
 Trust Radius=3.00D-01 FncErr=1.00D-07 GrdErr=1.00D-06
 Number of steps in this run=    228 maximum allowed number of steps=    228.
 GradGradGradGradGradGradGradGradGradGradGradGradGradGradGradGradGradGrad

                          Input orientation:                          
 ---------------------------------------------------------------------
 Center     Atomic      Atomic             Coordinates (Angstroms)
 Number     Number       Type             X           Y           Z
 ---------------------------------------------------------------------
      1          7           0       -1.450498    1.554813   -0.249956
      2          6           0       -0.052409    1.817088   -0.313835
      3          6           0       -1.743597    0.190636   -0.217148
      4          6           0       -0.524047   -0.473676   -0.219867
      5          6           0        0.530895    0.483078   -0.251191
      6          6           0        1.746555   -0.175469   -0.126124
      7          6           0        0.056917   -1.805141   -0.113000
      8          7           0        1.451945   -1.535937   -0.025761
      9          8           0        0.433798    2.934864   -0.421666
     10          8           0       -0.430064   -2.928277   -0.114686
     11          1           0        2.128179   -2.279213   -0.123484
     12          1           0       -2.118635    2.281531   -0.460542
     13          6           0        5.387225    0.634015    0.197176
     14          6           0        4.269024   -0.259113    0.407906
     15          6           0        4.493515   -1.494834    1.081018
     16          1           0        3.671045   -2.159947    1.318689
     17          6           0        5.770172   -1.823090    1.477002
     18          1           0        5.942546   -2.760572    1.996917
     19          6           0        6.875185   -0.951863    1.234300
     20          1           0        7.865480   -1.253893    1.561389
     21          6           0        6.698772    0.259779    0.614373
     22          6           0        3.086619    0.334217   -0.088625
     23         16           0        3.496886    1.903542   -0.706151
     24          7           0        5.110595    1.807712   -0.392171
     25          6           0       -5.393940   -0.599953    0.042090
     26          6           0       -4.284979    0.311666    0.220955
     27          6           0       -4.539568    1.599995    0.774061
     28          1           0       -3.730008    2.287016    0.992078
     29          6           0       -5.832276    1.957093    1.084223
     30          1           0       -6.026297    2.935572    1.512965
     31          6           0       -6.925982    1.064535    0.871166
     32          1           0       -7.929474    1.390330    1.127506
     33          6           0       -6.722278   -0.196003    0.368337
     34          6           0       -3.082367   -0.319915   -0.170884
     35         16           0       -3.469044   -1.938856   -0.668886
     36          7           0       -5.093648   -1.819789   -0.429889
     37          1           0        7.520863    0.945023    0.438170
     38          1           0       -7.535504   -0.897696    0.217549
 ---------------------------------------------------------------------
                    Distance matrix (angstroms):
                    1          2          3          4          5
     1  N    0.000000
     2  C    1.423911   0.000000
     3  C    1.395694   2.348364   0.000000
     4  C    2.230243   2.340699   1.388747   0.000000
     5  C    2.252673   1.457309   2.293468   1.424522   0.000000
     6  C    3.637356   2.691057   3.510481   2.292018   1.388220
     7  C    3.685152   3.629439   2.689948   1.456619   2.340875
     8  N    4.245842   3.686304   3.637193   2.251804   2.230599
     9  O    2.341921   1.223702   3.509083   3.546312   2.459623
    10  O    4.599748   4.764533   3.385777   2.458651   3.546748
    11  H    5.246207   4.644446   4.593428   3.209916   3.193412
    12  H    1.009392   2.122856   2.138162   3.192459   3.209091
    13  C    6.913918   5.590207   7.156597   6.028602   4.879320
    14  C    6.036227   4.848330   6.061731   4.838767   3.867669
    15  C    6.811985   5.794814   6.589963   5.283086   4.624854
    16  H    6.518458   5.687359   6.099376   4.775925   4.394388
    17  C    8.156635   7.096509   7.961279   6.657138   5.979556
    18  H    8.850315   7.888854   8.525755   7.208387   6.697852
    19  C    8.820625   7.619407   8.814499   7.555918   6.672012
    20  H    9.897336   8.697146   9.878473   8.611956   7.752332
    21  C    8.296673   6.990367   8.483502   7.307737   6.232317
    22  C    4.701204   3.478954   4.834058   3.702273   2.565212
    23  S    4.980595   3.571957   5.534964   4.696332   3.319910
    24  N    6.567506   5.163607   7.044538   6.081415   4.769506
    25  C    4.503226   5.873732   3.743960   4.878568   6.030144
    26  C    3.130727   4.524041   2.581706   3.867259   4.841998
    27  C    3.254690   4.622255   3.284241   4.627355   5.292281
    28  H    2.697209   3.930773   3.130953   4.400956   4.791159
    29  C    4.598026   5.948196   4.640176   5.982189   6.666783
    30  H    5.094342   6.346302   5.373033   6.700778   7.219677
    31  C    5.610545   7.015452   5.367051   6.673921   7.563253
    32  H    6.625827   8.019211   6.443014   7.754372   8.619847
    33  C    5.589213   7.000361   5.027877   6.232267   7.311189
    34  C    2.486736   3.710507   1.433565   2.563405   3.702284
    35  S    4.056569   5.089850   2.777764   3.319846   4.694651
    36  N    4.969191   6.217269   3.912788   4.768373   6.080347
    37  H    9.018352   7.660317   9.318195   8.195504   7.039052
    38  H    6.577284   7.978041   5.909282   7.037873   8.197137
                    6          7          8          9         10
     6  C    0.000000
     7  C    2.347526   0.000000
     8  N    1.395615   1.423441   0.000000
     9  O    3.388930   4.764972   4.602328   0.000000
    10  O    3.509381   1.224168   2.342750   5.934384   0.000000
    11  H    2.138080   2.124849   1.009605   5.490578   2.639312
    12  H    4.592208   4.642703   5.245105   2.635008   5.487530
    13  C    3.743564   5.870084   4.499425   5.496665   6.828472
    14  C    2.579736   4.517012   3.123184   5.059510   5.429453
    15  C    3.277760   4.604930   3.236943   6.193674   5.265558
    16  H    3.119183   3.903530   2.668584   6.282174   4.411801
    17  C    4.634023   5.930406   4.581249   7.397295   6.495986
    18  H    5.366228   6.324969   5.075081   8.284554   6.715440
    19  C    5.362498   7.002291   5.598252   7.703268   7.687173
    20  H    6.438319   8.005068   6.613019   8.758316   8.627215
    21  C    5.026155   6.993369   5.582433   6.890527   7.843183
    22  C    1.434210   3.708981   2.484670   3.729845   4.797041
    23  S    2.778916   5.093087   4.058907   3.244544   6.254377
    24  N    3.914148   6.218546   4.969906   4.810798   7.294209
    25  C    7.155079   5.584655   6.909907   6.831729   5.485047
    26  C    6.061119   4.841947   6.032147   5.437001   5.046807
    27  C    6.593781   5.788739   6.809700   5.286398   6.179251
    28  H    6.107941   5.683990   6.519478   4.444734   6.270075
    29  C    7.965641   7.090158   8.154336   6.518237   7.381607
    30  H    8.531261   7.881853   8.847947   6.743561   8.267515
    31  C    8.817318   7.613442   8.817970   7.702980   7.688394
    32  H    9.881743   8.690933   9.894649   8.644642   8.742686
    33  C    8.483280   6.984160   8.292687   7.850850   6.876816
    34  C    4.831289   3.473377   4.696781   4.797905   3.720406
    35  S    5.532323   3.572014   4.979165   6.248715   3.243685
    36  N    7.041622   5.160324   6.564197   7.291053   4.803865
    37  H    5.909024   7.973561   6.572834   7.411159   8.861452
    38  H    9.316455   7.653598   9.013367   8.866052   7.397359
                   11         12         13         14         15
    11  H    0.000000
    12  H    6.240947   0.000000
    13  C    4.383047   7.712641   0.000000
    14  C    2.991053   6.929015   1.446533   0.000000
    15  C    2.767831   7.769032   2.472224   1.424950   0.000000
    16  H    2.115307   7.510844   3.465442   2.190953   1.084122
    17  C    4.004212   9.101388   2.796778   2.417113   1.376375
    18  H    4.390580   9.820618   3.882096   3.403370   2.130880
    19  C    5.112680   9.706498   2.409285   2.820444   2.447583
    20  H    6.066852  10.782856   3.401032   3.905715   3.414521
    21  C    5.280268   9.109862   1.426275   2.493101   2.856498
    22  C    2.783853   5.570011   2.337595   1.413034   2.587054
    23  S    4.439402   5.633584   2.449711   2.552332   3.966888
    24  N    5.066552   7.245064   1.342169   2.370681   3.668499
    25  C    7.709060   4.391266  10.852661   9.675891   9.982082
    26  C    6.925308   3.006302   9.677604   8.575063   9.003617
    27  C    7.766125   2.801723   9.990352   9.010086   9.553470
    28  H    7.510878   2.169484   9.299905   8.414781   9.051886
    29  C    9.098005   4.035182  11.332017  10.363650  10.887505
    30  H    9.816692   4.426322  11.717379  10.836088  11.422851
    31  C    9.702980   5.134697  12.339153  11.282500  11.704671
    32  H   10.779003   6.089498  13.370565  12.330525  12.753705
    33  C    9.105616   5.293274  12.139123  10.991554  11.313218
    34  C    5.566946   2.789301   8.531087   7.374391   7.767991
    35  S    5.634023   4.436066   9.263004   7.991165   8.164660
    36  N    7.242910   5.066801  10.782535   9.528758   9.710929
    37  H    6.308105   9.773118   2.169611   3.467753   3.940937
    38  H    9.767890   6.317418  13.013204  11.823320  12.074745
                   16         17         18         19         20
    16  H    0.000000
    17  C    2.131870   0.000000
    18  H    2.445497   1.085770   0.000000
    19  C    3.425361   1.427933   2.173207   0.000000
    20  H    4.298037   2.172883   2.481419   1.085769   0.000000
    21  C    3.939323   2.438190   3.406732   1.372409   2.132897
    22  C    2.922830   3.782409   4.699310   4.213948   5.299260
    23  S    4.543374   4.880756   5.919610   4.830278   5.847713
    24  N    4.554302   4.136614   5.221982   3.657107   4.558422
    25  C    9.286401  11.322210  11.704936  12.331935  13.362190
    26  C    8.403107  10.355719  10.825661  11.277084  12.324017
    27  C    9.046986  10.885880  11.418609  11.705570  12.753422
    28  H    8.640471  10.362507  10.956557  11.091398  12.137442
    29  C   10.359445  12.209049  12.717539  13.037028  14.077167
    30  H   10.956299  12.720175  13.263991  13.477315  14.509839
    31  C   11.085781  13.034483  13.472110  13.952417  14.987957
    32  H   12.133139  14.075814  14.505819  14.989169  16.020635
    33  C   10.619859  12.646654  13.024095  13.645959  14.674644
    34  C    7.156334   9.129212   9.597146  10.076048  11.123329
    35  S    7.414864   9.485850   9.816300  10.564059  11.572154
    36  N    8.943885  11.029906  11.338961  12.115105  13.123430
    37  H    5.023669   3.436064   4.318820   2.156130   2.493113
    38  H   11.331043  13.397149  13.722036  14.446614  15.463605
                   21         22         23         24         25
    21  C    0.000000
    22  C    3.680679   0.000000
    23  S    3.833773   1.735638   0.000000
    24  N    2.435474   2.521866   1.646762   0.000000
    25  C   12.136735   8.532857   9.266830  10.785671   0.000000
    26  C   10.990917   7.378130   7.996938   9.533672   1.446664
    27  C   11.319098   7.778506   8.177271   9.722597   2.470932
    28  H   10.630701   7.172709   7.433641   8.961147   3.464930
    29  C   12.654201   9.140897   9.499556  11.043029   2.795830
    30  H   13.034367   9.611315   9.832628  11.354822   3.881145
    31  C   13.650916  10.084976  10.574877  12.125491   2.409365
    32  H   14.680839  11.133223  11.583928  13.134955   3.401218
    33  C   13.431041   9.833840  10.487798  12.025396   1.426217
    34  C    9.829718   6.204115   6.965403   8.467609   2.338194
    35  S   10.481662   6.962778   7.955475   9.366085   2.450178
    36  N   12.019828   8.465989   9.366791  10.829902   1.341991
    37  H    1.084638   4.507007   4.291925   2.691298  13.012915
    38  H   14.286771  10.697703  11.419885  12.946614   2.169270
                   26         27         28         29         30
    26  C    0.000000
    27  C    1.424968   0.000000
    28  H    2.191947   1.083936   0.000000
    29  C    2.418014   1.376522   2.129993   0.000000
    30  H    3.403874   2.130753   2.442313   1.085765   0.000000
    31  C    2.822142   2.447676   3.423935   1.427671   2.173044
    32  H    3.907390   3.414725   4.296266   2.172863   2.481619
    33  C    2.493968   2.855599   3.938035   2.437297   3.406072
    34  C    1.413757   2.588901   2.927116   3.784450   4.701092
    35  S    2.553902   3.968827   4.548065   4.882282   5.921154
    36  N    2.370790   3.667618   4.554926   4.135571   5.220917
    37  H   11.824814  12.082872  11.344155  13.407012  13.734737
    38  H    3.468210   3.940025   5.022359   3.435394   4.318536
                   31         32         33         34         35
    31  C    0.000000
    32  H    1.085748   0.000000
    33  C    1.372330   2.133099   0.000000
    34  C    4.216153   5.301434   3.681720   0.000000
    35  S    4.831412   5.848584   3.833654   1.737382   0.000000
    36  N    3.656435   4.557659   2.434395   2.522292   1.646401
    37  H   14.453826  15.472116  14.288942  10.695770  11.415795
    38  H    2.156173   2.493651   1.084641   4.507232   4.290207
                   36         37         38
    36  N    0.000000
    37  H   12.943090   0.000000
    38  H    2.689255  15.170315   0.000000
 Stoichiometry    C20H10N4O2S2
 Framework group  C1[X(C20H10N4O2S2)]
 Deg. of freedom   108
 Full point group                 C1      NOp   1
 Largest Abelian subgroup         C1      NOp   1
 Largest concise Abelian subgroup C1      NOp   1
                         Standard orientation:                         
 ---------------------------------------------------------------------
 Center     Atomic      Atomic             Coordinates (Angstroms)
 Number     Number       Type             X           Y           Z
 ---------------------------------------------------------------------
      1          7           0       -1.443211    1.560815   -0.220905
      2          6           0       -0.044972    1.818497   -0.298685
      3          6           0       -1.744241    0.198304   -0.251010
      4          6           0       -0.529188   -0.471538   -0.310819
      5          6           0        0.530985    0.479925   -0.314517
      6          6           0        1.744631   -0.190575   -0.246360
      7          6           0        0.045292   -1.809783   -0.282318
      8          7           0        1.443408   -1.552777   -0.208791
      9          8           0        0.446133    2.937670   -0.359633
     10          8           0       -0.448717   -2.928789   -0.330983
     11          1           0        2.112939   -2.293792   -0.356874
     12          1           0       -2.110652    2.300779   -0.381674
     13          6           0        5.395865    0.582120    0.046388
     14          6           0        4.276283   -0.314497    0.233660
     15          6           0        4.505808   -1.583738    0.839324
     16          1           0        3.683853   -2.255572    1.059208
     17          6           0        5.787713   -1.938345    1.193419
     18          1           0        5.964082   -2.901733    1.662111
     19          6           0        6.893358   -1.061918    0.973377
     20          1           0        7.887806   -1.385331    1.265563
     21          6           0        6.712768    0.180338    0.418676
     22          6           0        3.088361    0.309403   -0.209346
     23         16           0        3.496637    1.905626   -0.755077
     24          7           0        5.115424    1.785476   -0.477736
     25          6           0       -5.393874   -0.584813    0.039071
     26          6           0       -4.275955    0.310697    0.241938
     27          6           0       -4.511764    1.570872    0.863939
     28          1           0       -3.693855    2.241701    1.100432
     29          6           0       -5.796016    1.918799    1.216725
     30          1           0       -5.975608    2.875463    1.697793
     31          6           0       -6.899217    1.043966    0.980378
     32          1           0       -7.895539    1.361796    1.272225
     33          6           0       -6.713144   -0.190714    0.410966
     34          6           0       -3.085078   -0.306765   -0.204451
     35         16           0       -3.491438   -1.896475   -0.775580
     36          7           0       -5.110385   -1.780914   -0.499367
     37          1           0        7.535647    0.869183    0.261190
     38          1           0       -7.533524   -0.879563    0.240938
 ---------------------------------------------------------------------
 Rotational constants (GHZ):      0.4478772      0.0718204      0.0642296
 Standard basis: 6-31+G(d,p) (6D, 7F)
 There are   590 symmetry adapted basis functions of A   symmetry.
 Integral buffers will be    262144 words long.
 Raffenetti 2 integral format.
 Two-electron integral symmetry is turned on.
   590 basis functions,  1014 primitive gaussians,   590 cartesian basis functions
   103 alpha electrons      103 beta electrons
       nuclear repulsion energy      2639.2080064594 Hartrees.
 NAtoms=   38 NActive=   38 NUniq=   38 SFac= 1.00D+00 NAtFMM=   50 NAOKFM=F Big=F
 One-electron integrals computed using PRISM.
 NBasis=   590 RedAO= T  NBF=   590
 NBsUse=   583 1.00D-06 NBFU=   583
 Harris functional with IExCor=  402 diagonalized for initial guess.
 ExpMin= 4.05D-02 ExpMax= 2.19D+04 ExpMxC= 3.30D+03 IAcc=2 IRadAn=         0 AccDes= 0.00D+00
 HarFok:  IExCor=  402 AccDes= 0.00D+00 IRadAn=         0 IDoV= 1
 ScaDFX=  1.000000  1.000000  1.000000  1.000000
 FoFCou: FMM=F IPFlag=           0 FMFlag=      100000 FMFlg1=           0
         NFxFlg=           0 DoJE=T BraDBF=F KetDBF=T FulRan=T
         Omega=  0.000000  0.000000  1.000000  0.000000  0.000000 ICntrl=     500 IOpCl=  0
         NMat0=    1 NMatS0=    1 NMatT0=    0 NMatD0=    1 NMtDS0=    0 NMtDT0=    0
         I1Cent=           4 NGrid=           0.
 Petite list used in FoFCou.
 Initial guess orbital symmetries:
       Occupied  (A) (A) (A) (A) (A) (A) (A) (A) (A) (A) (A) (A)
                 (A) (A) (A) (A) (A) (A) (A) (A) (A) (A) (A) (A)
                 (A) (A) (A) (A) (A) (A) (A) (A) (A) (A) (A) (A)
                 (A) (A) (A) (A) (A) (A) (A) (A) (A) (A) (A) (A)
                 (A) (A) (A) (A) (A) (A) (A) (A) (A) (A) (A) (A)
                 (A) (A) (A) (A) (A) (A) (A) (A) (A) (A) (A) (A)
                 (A) (A) (A) (A) (A) (A) (A) (A) (A) (A) (A) (A)
                 (A) (A) (A) (A) (A) (A) (A) (A) (A) (A) (A) (A)
                 (A) (A) (A) (A) (A) (A) (A)
       Virtual   (A) (A) (A) (A) (A) (A) (A) (A) (A) (A) (A) (A)
                 (A) (A) (A) (A) (A) (A) (A) (A) (A) (A) (A) (A)
                 (A) (A) (A) (A) (A) (A) (A) (A) (A) (A) (A) (A)
                 (A) (A) (A) (A) (A) (A) (A) (A) (A) (A) (A) (A)
                 (A) (A) (A) (A) (A) (A) (A) (A) (A) (A) (A) (A)
                 (A) (A) (A) (A) (A) (A) (A) (A) (A) (A) (A) (A)
                 (A) (A) (A) (A) (A) (A) (A) (A) (A) (A) (A) (A)
                 (A) (A) (A) (A) (A) (A) (A) (A) (A) (A) (A) (A)
                 (A) (A) (A) (A) (A) (A) (A) (A) (A) (A) (A) (A)
                 (A) (A) (A) (A) (A) (A) (A) (A) (A) (A) (A) (A)
                 (A) (A) (A) (A) (A) (A) (A) (A) (A) (A) (A) (A)
                 (A) (A) (A) (A) (A) (A) (A) (A) (A) (A) (A) (A)
                 (A) (A) (A) (A) (A) (A) (A) (A) (A) (A) (A) (A)
                 (A) (A) (A) (A) (A) (A) (A) (A) (A) (A) (A) (A)
                 (A) (A) (A) (A) (A) (A) (A) (A) (A) (A) (A) (A)
                 (A) (A) (A) (A) (A) (A) (A) (A) (A) (A) (A) (A)
                 (A) (A) (A) (A) (A) (A) (A) (A) (A) (A) (A) (A)
                 (A) (A) (A) (A) (A) (A) (A) (A) (A) (A) (A) (A)
                 (A) (A) (A) (A) (A) (A) (A) (A) (A) (A) (A) (A)
                 (A) (A) (A) (A) (A) (A) (A) (A) (A) (A) (A) (A)
                 (A) (A) (A) (A) (A) (A) (A) (A) (A) (A) (A) (A)
                 (A) (A) (A) (A) (A) (A) (A) (A) (A) (A) (A) (A)
                 (A) (A) (A) (A) (A) (A) (A) (A) (A) (A) (A) (A)
                 (A) (A) (A) (A) (A) (A) (A) (A) (A) (A) (A) (A)
                 (A) (A) (A) (A) (A) (A) (A) (A) (A) (A) (A) (A)
                 (A) (A) (A) (A) (A) (A) (A) (A) (A) (A) (A) (A)
                 (A) (A) (A) (A) (A) (A) (A) (A) (A) (A) (A) (A)
                 (A) (A) (A) (A) (A) (A) (A) (A) (A) (A) (A) (A)
                 (A) (A) (A) (A) (A) (A) (A) (A) (A) (A) (A) (A)
                 (A) (A) (A) (A) (A) (A) (A) (A) (A) (A) (A) (A)
                 (A) (A) (A) (A) (A) (A) (A) (A) (A) (A) (A) (A)
                 (A) (A) (A) (A) (A) (A) (A) (A) (A) (A) (A) (A)
                 (A) (A) (A) (A) (A) (A) (A) (A) (A) (A) (A) (A)
                 (A) (A) (A) (A) (A) (A) (A) (A) (A) (A) (A) (A)
                 (A) (A) (A) (A) (A) (A) (A) (A) (A) (A) (A) (A)
                 (A) (A) (A) (A) (A) (A) (A) (A) (A) (A) (A) (A)
                 (A) (A) (A) (A) (A) (A) (A) (A) (A) (A) (A) (A)
                 (A) (A) (A) (A) (A) (A) (A) (A) (A) (A) (A) (A)
                 (A) (A) (A) (A) (A) (A) (A) (A) (A) (A) (A) (A)
                 (A) (A) (A) (A) (A) (A) (A) (A) (A) (A) (A) (A)
 The electronic state of the initial guess is 1-A.
 Requested convergence on RMS density matrix=1.00D-08 within 128 cycles.
 Requested convergence on MAX density matrix=1.00D-06.
 Requested convergence on             energy=1.00D-06.
 No special actions if energy rises.
 Restarting incremental Fock formation.
 Restarting incremental Fock formation.
 SCF Done:  E(RB3LYP) =  -1934.02837095     A.U. after   43 cycles
             Convg  =    0.3600D-08             -V/T =  2.0070

 **********************************************************************

            Population analysis using the SCF density.

 **********************************************************************

 Orbital symmetries:
       Occupied  (A) (A) (A) (A) (A) (A) (A) (A) (A) (A) (A) (A)
                 (A) (A) (A) (A) (A) (A) (A) (A) (A) (A) (A) (A)
                 (A) (A) (A) (A) (A) (A) (A) (A) (A) (A) (A) (A)
                 (A) (A) (A) (A) (A) (A) (A) (A) (A) (A) (A) (A)
                 (A) (A) (A) (A) (A) (A) (A) (A) (A) (A) (A) (A)
                 (A) (A) (A) (A) (A) (A) (A) (A) (A) (A) (A) (A)
                 (A) (A) (A) (A) (A) (A) (A) (A) (A) (A) (A) (A)
                 (A) (A) (A) (A) (A) (A) (A) (A) (A) (A) (A) (A)
                 (A) (A) (A) (A) (A) (A) (A)
       Virtual   (A) (A) (A) (A) (A) (A) (A) (A) (A) (A) (A) (A)
                 (A) (A) (A) (A) (A) (A) (A) (A) (A) (A) (A) (A)
                 (A) (A) (A) (A) (A) (A) (A) (A) (A) (A) (A) (A)
                 (A) (A) (A) (A) (A) (A) (A) (A) (A) (A) (A) (A)
                 (A) (A) (A) (A) (A) (A) (A) (A) (A) (A) (A) (A)
                 (A) (A) (A) (A) (A) (A) (A) (A) (A) (A) (A) (A)
                 (A) (A) (A) (A) (A) (A) (A) (A) (A) (A) (A) (A)
                 (A) (A) (A) (A) (A) (A) (A) (A) (A) (A) (A) (A)
                 (A) (A) (A) (A) (A) (A) (A) (A) (A) (A) (A) (A)
                 (A) (A) (A) (A) (A) (A) (A) (A) (A) (A) (A) (A)
                 (A) (A) (A) (A) (A) (A) (A) (A) (A) (A) (A) (A)
                 (A) (A) (A) (A) (A) (A) (A) (A) (A) (A) (A) (A)
                 (A) (A) (A) (A) (A) (A) (A) (A) (A) (A) (A) (A)
                 (A) (A) (A) (A) (A) (A) (A) (A) (A) (A) (A) (A)
                 (A) (A) (A) (A) (A) (A) (A) (A) (A) (A) (A) (A)
                 (A) (A) (A) (A) (A) (A) (A) (A) (A) (A) (A) (A)
                 (A) (A) (A) (A) (A) (A) (A) (A) (A) (A) (A) (A)
                 (A) (A) (A) (A) (A) (A) (A) (A) (A) (A) (A) (A)
                 (A) (A) (A) (A) (A) (A) (A) (A) (A) (A) (A) (A)
                 (A) (A) (A) (A) (A) (A) (A) (A) (A) (A) (A) (A)
                 (A) (A) (A) (A) (A) (A) (A) (A) (A) (A) (A) (A)
                 (A) (A) (A) (A) (A) (A) (A) (A) (A) (A) (A) (A)
                 (A) (A) (A) (A) (A) (A) (A) (A) (A) (A) (A) (A)
                 (A) (A) (A) (A) (A) (A) (A) (A) (A) (A) (A) (A)
                 (A) (A) (A) (A) (A) (A) (A) (A) (A) (A) (A) (A)
                 (A) (A) (A) (A) (A) (A) (A) (A) (A) (A) (A) (A)
                 (A) (A) (A) (A) (A) (A) (A) (A) (A) (A) (A) (A)
                 (A) (A) (A) (A) (A) (A) (A) (A) (A) (A) (A) (A)
                 (A) (A) (A) (A) (A) (A) (A) (A) (A) (A) (A) (A)
                 (A) (A) (A) (A) (A) (A) (A) (A) (A) (A) (A) (A)
                 (A) (A) (A) (A) (A) (A) (A) (A) (A) (A) (A) (A)
                 (A) (A) (A) (A) (A) (A) (A) (A) (A) (A) (A) (A)
                 (A) (A) (A) (A) (A) (A) (A) (A) (A) (A) (A) (A)
                 (A) (A) (A) (A) (A) (A) (A) (A) (A) (A) (A) (A)
                 (A) (A) (A) (A) (A) (A) (A) (A) (A) (A) (A) (A)
                 (A) (A) (A) (A) (A) (A) (A) (A) (A) (A) (A) (A)
                 (A) (A) (A) (A) (A) (A) (A) (A) (A) (A) (A) (A)
                 (A) (A) (A) (A) (A) (A) (A) (A) (A) (A) (A) (A)
                 (A) (A) (A) (A) (A) (A) (A) (A) (A) (A) (A) (A)
                 (A) (A) (A) (A) (A) (A) (A) (A) (A) (A) (A) (A)
 The electronic state is 1-A.
 Alpha  occ. eigenvalues --  -88.96895 -88.96889 -19.15371 -19.15341 -14.40783
 Alpha  occ. eigenvalues --  -14.40781 -14.37780 -14.37776 -10.32254 -10.32234
 Alpha  occ. eigenvalues --  -10.29414 -10.29411 -10.26637 -10.26629 -10.25513
 Alpha  occ. eigenvalues --  -10.25505 -10.24027 -10.24019 -10.22814 -10.22785
 Alpha  occ. eigenvalues --  -10.22436 -10.22416 -10.22220 -10.22206 -10.22030
 Alpha  occ. eigenvalues --  -10.22017 -10.21893 -10.21846  -8.02375  -8.02371
 Alpha  occ. eigenvalues --   -5.98872  -5.98869  -5.98361  -5.98358  -5.98143
 Alpha  occ. eigenvalues --   -5.98139  -1.06953  -1.06427  -1.00050  -0.99346
 Alpha  occ. eigenvalues --   -0.98824  -0.98132  -0.87220  -0.87196  -0.84181
 Alpha  occ. eigenvalues --   -0.83970  -0.83290  -0.77907  -0.77103  -0.77078
 Alpha  occ. eigenvalues --   -0.76764  -0.73979  -0.71380  -0.70012  -0.65543
 Alpha  occ. eigenvalues --   -0.65149  -0.63252  -0.62072  -0.61810  -0.60625
 Alpha  occ. eigenvalues --   -0.58502  -0.56584  -0.55674  -0.54628  -0.51674
 Alpha  occ. eigenvalues --   -0.50963  -0.49993  -0.49440  -0.49422  -0.48953
 Alpha  occ. eigenvalues --   -0.48366  -0.48331  -0.46506  -0.46163  -0.46071
 Alpha  occ. eigenvalues --   -0.45249  -0.44950  -0.44644  -0.44525  -0.43742
 Alpha  occ. eigenvalues --   -0.41768  -0.39643  -0.39527  -0.39027  -0.38914
 Alpha  occ. eigenvalues --   -0.38439  -0.37330  -0.37262  -0.36946  -0.36531
 Alpha  occ. eigenvalues --   -0.36313  -0.32166  -0.31872  -0.31602  -0.31539
 Alpha  occ. eigenvalues --   -0.29741  -0.29141  -0.28241  -0.27658  -0.27562
 Alpha  occ. eigenvalues --   -0.26003  -0.25214  -0.21295
 Alpha virt. eigenvalues --   -0.13282  -0.09699  -0.06827  -0.03501  -0.01512
 Alpha virt. eigenvalues --   -0.01485  -0.01162  -0.00986  -0.00609  -0.00476
 Alpha virt. eigenvalues --   -0.00090   0.00574   0.00588   0.01201   0.01354
 Alpha virt. eigenvalues --    0.01770   0.02641   0.02974   0.03204   0.03908
 Alpha virt. eigenvalues --    0.04043   0.04644   0.04807   0.05339   0.05612
 Alpha virt. eigenvalues --    0.05930   0.05988   0.06417   0.06532   0.07167
 Alpha virt. eigenvalues --    0.07360   0.07891   0.07908   0.08075   0.08728
 Alpha virt. eigenvalues --    0.08805   0.09227   0.09814   0.09867   0.10212
 Alpha virt. eigenvalues --    0.10525   0.10663   0.10945   0.11197   0.11410
 Alpha virt. eigenvalues --    0.11899   0.12174   0.12185   0.12863   0.12904
 Alpha virt. eigenvalues --    0.13258   0.13572   0.13840   0.13946   0.14103
 Alpha virt. eigenvalues --    0.14701   0.15300   0.15312   0.15555   0.15832
 Alpha virt. eigenvalues --    0.16575   0.16597   0.16711   0.16899   0.17018
 Alpha virt. eigenvalues --    0.17696   0.18203   0.18277   0.18501   0.18674
 Alpha virt. eigenvalues --    0.18999   0.19040   0.19260   0.19545   0.19653
 Alpha virt. eigenvalues --    0.20024   0.20375   0.20483   0.20733   0.21066
 Alpha virt. eigenvalues --    0.21269   0.21334   0.21766   0.21850   0.22430
 Alpha virt. eigenvalues --    0.22536   0.22613   0.22952   0.23455   0.23489
 Alpha virt. eigenvalues --    0.23553   0.23766   0.24073   0.24439   0.24549
 Alpha virt. eigenvalues --    0.24947   0.25391   0.25447   0.25637   0.25750
 Alpha virt. eigenvalues --    0.26430   0.26484   0.26690   0.26773   0.27115
 Alpha virt. eigenvalues --    0.27265   0.27658   0.27853   0.28337   0.28396
 Alpha virt. eigenvalues --    0.28422   0.28846   0.28976   0.29027   0.29670
 Alpha virt. eigenvalues --    0.29790   0.30543   0.30795   0.31117   0.31320
 Alpha virt. eigenvalues --    0.31621   0.31816   0.31957   0.32216   0.33011
 Alpha virt. eigenvalues --    0.33307   0.33643   0.33825   0.34197   0.34624
 Alpha virt. eigenvalues --    0.34655   0.35344   0.35576   0.35803   0.36282
 Alpha virt. eigenvalues --    0.36918   0.37550   0.37719   0.39258   0.39825
 Alpha virt. eigenvalues --    0.40118   0.40144   0.41088   0.41570   0.42197
 Alpha virt. eigenvalues --    0.42873   0.44247   0.44358   0.45046   0.45602
 Alpha virt. eigenvalues --    0.47023   0.48475   0.49178   0.50578   0.51385
 Alpha virt. eigenvalues --    0.52863   0.54282   0.56444   0.56934   0.58371
 Alpha virt. eigenvalues --    0.59079   0.59653   0.59816   0.61381   0.63099
 Alpha virt. eigenvalues --    0.63355   0.64266   0.64410   0.65995   0.66418
 Alpha virt. eigenvalues --    0.66614   0.66673   0.67590   0.67684   0.68955
 Alpha virt. eigenvalues --    0.69517   0.69850   0.70340   0.70417   0.70734
 Alpha virt. eigenvalues --    0.71070   0.71779   0.72018   0.72458   0.72826
 Alpha virt. eigenvalues --    0.73252   0.73640   0.74329   0.74548   0.74777
 Alpha virt. eigenvalues --    0.75386   0.76762   0.76973   0.77261   0.77461
 Alpha virt. eigenvalues --    0.77501   0.77891   0.78427   0.79245   0.79908
 Alpha virt. eigenvalues --    0.81560   0.81830   0.82849   0.84324   0.84588
 Alpha virt. eigenvalues --    0.86598   0.87510   0.87595   0.89026   0.89573
 Alpha virt. eigenvalues --    0.90236   0.90980   0.91358   0.92071   0.92267
 Alpha virt. eigenvalues --    0.93631   0.93950   0.94235   0.95088   0.95463
 Alpha virt. eigenvalues --    0.96943   0.97080   0.98366   0.99107   0.99377
 Alpha virt. eigenvalues --    1.00716   1.01317   1.02025   1.02819   1.03260
 Alpha virt. eigenvalues --    1.03902   1.04028   1.05617   1.05669   1.06072
 Alpha virt. eigenvalues --    1.06209   1.08350   1.08541   1.08599   1.09175
 Alpha virt. eigenvalues --    1.10379   1.10903   1.11209   1.11661   1.12532
 Alpha virt. eigenvalues --    1.13643   1.13734   1.14878   1.15249   1.15883
 Alpha virt. eigenvalues --    1.17075   1.17680   1.18631   1.19254   1.20090
 Alpha virt. eigenvalues --    1.21780   1.22049   1.22819   1.23109   1.23789
 Alpha virt. eigenvalues --    1.24209   1.25397   1.25960   1.26150   1.28007
 Alpha virt. eigenvalues --    1.28167   1.28612   1.29631   1.30413   1.31334
 Alpha virt. eigenvalues --    1.32404   1.32565   1.32919   1.34926   1.35170
 Alpha virt. eigenvalues --    1.35678   1.35956   1.36222   1.36559   1.37318
 Alpha virt. eigenvalues --    1.37372   1.37855   1.38020   1.38226   1.38918
 Alpha virt. eigenvalues --    1.39124   1.39761   1.40192   1.40720   1.42084
 Alpha virt. eigenvalues --    1.42335   1.42738   1.43481   1.45296   1.45304
 Alpha virt. eigenvalues --    1.46742   1.49280   1.50112   1.51489   1.56432
 Alpha virt. eigenvalues --    1.56854   1.60759   1.62890   1.62966   1.66089
 Alpha virt. eigenvalues --    1.67559   1.69920   1.70403   1.73708   1.74193
 Alpha virt. eigenvalues --    1.74589   1.76197   1.77664   1.78883   1.79511
 Alpha virt. eigenvalues --    1.80500   1.80555   1.80782   1.82541   1.83072
 Alpha virt. eigenvalues --    1.83576   1.84721   1.84757   1.85031   1.85767
 Alpha virt. eigenvalues --    1.87118   1.87825   1.88524   1.88858   1.89972
 Alpha virt. eigenvalues --    1.91236   1.92418   1.92563   1.93083   1.93438
 Alpha virt. eigenvalues --    1.93797   1.94702   1.96666   1.96742   1.97971
 Alpha virt. eigenvalues --    1.98032   1.98626   2.00157   2.00667   2.02394
 Alpha virt. eigenvalues --    2.02739   2.03695   2.04376   2.04795   2.05163
 Alpha virt. eigenvalues --    2.06178   2.08187   2.10197   2.10752   2.14560
 Alpha virt. eigenvalues --    2.14595   2.17137   2.17228   2.18679   2.19697
 Alpha virt. eigenvalues --    2.22697   2.22790   2.24055   2.24513   2.25805
 Alpha virt. eigenvalues --    2.27860   2.28938   2.29990   2.33183   2.33927
 Alpha virt. eigenvalues --    2.34355   2.34756   2.34805   2.35045   2.36333
 Alpha virt. eigenvalues --    2.36459   2.37005   2.37891   2.38061   2.39989
 Alpha virt. eigenvalues --    2.40960   2.42580   2.43387   2.44764   2.45470
 Alpha virt. eigenvalues --    2.47056   2.47834   2.47887   2.48949   2.49416
 Alpha virt. eigenvalues --    2.50461   2.50960   2.53053   2.54467   2.54766
 Alpha virt. eigenvalues --    2.55833   2.56734   2.56821   2.57358   2.58725
 Alpha virt. eigenvalues --    2.59840   2.60284   2.60695   2.60962   2.63065
 Alpha virt. eigenvalues --    2.64211   2.64325   2.66214   2.67005   2.71310
 Alpha virt. eigenvalues --    2.71621   2.74689   2.74821   2.75078   2.75902
 Alpha virt. eigenvalues --    2.76584   2.78513   2.79081   2.79277   2.83283
 Alpha virt. eigenvalues --    2.83916   2.87010   2.92295   2.93593   2.95141
 Alpha virt. eigenvalues --    2.95244   2.97366   3.02517   3.02626   3.04436
 Alpha virt. eigenvalues --    3.04504   3.10770   3.12494   3.13438   3.18386
 Alpha virt. eigenvalues --    3.18727   3.25160   3.25347   3.25455   3.25672
 Alpha virt. eigenvalues --    3.29950   3.33198   3.33896   3.34004   3.36537
 Alpha virt. eigenvalues --    3.42189   3.48057   3.48227   3.54210   3.54678
 Alpha virt. eigenvalues --    3.82321   3.82332   3.97883   3.98001   4.10949
 Alpha virt. eigenvalues --    4.11733   4.22643   4.26843   4.27061   4.29734
 Alpha virt. eigenvalues --    4.29832   4.31262   4.33160   4.33500   4.37042
 Alpha virt. eigenvalues --    4.37708   4.39584   4.41513   4.42761   4.49328
 Alpha virt. eigenvalues --    4.49843   4.50114   4.51670   4.58780   4.67013
 Alpha virt. eigenvalues --    4.75490   4.84894   4.85052   4.97274   5.04537
          Condensed to atoms (all electrons):
              1          2          3          4          5          6
     1  N    7.427663   0.266849   0.022482   0.178209  -0.178873  -0.116868
     2  C    0.266849   8.525435  -0.065171  -0.951961  -2.355281  -0.098844
     3  C    0.022482  -0.065171  13.419375   2.327569  -6.493652  -2.782698
     4  C    0.178209  -0.951961   2.327569  19.165314  -2.595193  -6.691137
     5  C   -0.178873  -2.355281  -6.493652  -2.595193  18.752797   2.361291
     6  C   -0.116868  -0.098844  -2.782698  -6.691137   2.361291  13.366052
     7  C   -0.091693  -0.248121  -0.152462  -2.497706  -0.919209  -0.123216
     8  N   -0.000195  -0.095367  -0.111484  -0.225201   0.156399   0.052853
     9  O   -0.091001   0.275412  -0.067886  -0.035269  -0.033628   0.080233
    10  O   -0.003330   0.019739   0.075612  -0.020839  -0.035356  -0.062300
    11  H    0.000643   0.006376  -0.000370   0.105125   0.037439  -0.072602
    12  H    0.304721  -0.069746  -0.071377   0.036405   0.111924  -0.000290
    13  C   -0.026682   0.307198  -0.501480  -0.690794  -2.328687   1.176426
    14  C   -0.021771   0.039835   0.156148  -1.307269   0.141857  -1.064081
    15  C    0.013559  -0.272565   0.376360   0.969938   1.191048  -1.083830
    16  H    0.000008   0.000302  -0.000811  -0.006985  -0.000428  -0.013841
    17  C    0.001203   0.039122  -0.024401  -0.197631  -0.055996  -0.097715
    18  H    0.000000   0.000005   0.000017   0.000137  -0.000041  -0.001401
    19  C   -0.000212  -0.009733   0.009415   0.025350   0.008262  -0.099391
    20  H    0.000000   0.000002   0.000000  -0.000019   0.000020   0.000136
    21  C   -0.000441   0.080297  -0.076172  -0.098580  -0.530441   1.059672
    22  C   -0.116170   0.048815  -0.659498  -1.189624   0.370715   0.727313
    23  S    0.025024  -0.180082   0.210934   0.454979   0.444446  -0.585467
    24  N    0.001327   0.022930   0.016397   0.021089   0.098574  -0.066022
    25  C   -0.171446   0.074749   1.522416  -2.018916  -0.682773  -0.512115
    26  C   -0.151682  -0.127117  -1.134665   0.384121  -1.301337   0.159587
    27  C    0.178785  -0.098313  -1.473645   0.924897   0.954223   0.392473
    28  H   -0.002145   0.008662  -0.016599   0.001167  -0.003021  -0.000551
    29  C    0.076248   0.119826  -0.053015  -0.050692  -0.122436  -0.016565
    30  H    0.000326   0.000057  -0.001439  -0.000042   0.000092   0.000015
    31  C    0.002195  -0.012990  -0.120279   0.007605   0.018223   0.008859
    32  H    0.000004  -0.000009   0.000170   0.000016  -0.000021  -0.000001
    33  C   -0.052027   0.057258   1.252795  -0.482080  -0.070295  -0.074685
    34  C   -0.122919   0.246844   0.690237   0.301259  -1.148923  -0.633675
    35  S    0.045668   0.033086  -0.697570   0.386226   0.450973   0.228688
    36  N    0.004561  -0.005179  -0.103915   0.074786   0.020844   0.017032
    37  H    0.000000  -0.000038   0.000003   0.000018  -0.000014  -0.000414
    38  H    0.000000  -0.000003  -0.000623  -0.000027   0.000015   0.000003
              7          8          9         10         11         12
     1  N   -0.091693  -0.000195  -0.091001  -0.003330   0.000643   0.304721
     2  C   -0.248121  -0.095367   0.275412   0.019739   0.006376  -0.069746
     3  C   -0.152462  -0.111484  -0.067886   0.075612  -0.000370  -0.071377
     4  C   -2.497706  -0.225201  -0.035269  -0.020839   0.105125   0.036405
     5  C   -0.919209   0.156399  -0.033628  -0.035356   0.037439   0.111924
     6  C   -0.123216   0.052853   0.080233  -0.062300  -0.072602  -0.000290
     7  C    8.866779   0.283865   0.022124   0.247888  -0.062387   0.006003
     8  N    0.283865   7.431189  -0.003105  -0.092853   0.303642   0.000631
     9  O    0.022124  -0.003105   8.396722   0.000021  -0.000024   0.003300
    10  O    0.247888  -0.092853   0.000021   8.401607   0.003358  -0.000024
    11  H   -0.062387   0.303642  -0.000024   0.003358   0.398769   0.000000
    12  H    0.006003   0.000631   0.003300  -0.000024   0.000000   0.396363
    13  C   -0.017744  -0.182890  -0.044691   0.000115  -0.030268  -0.000014
    14  C   -0.273591  -0.176024  -0.011653   0.018192  -0.093355  -0.000348
    15  C   -0.000669   0.200041   0.020271  -0.011907   0.068113   0.000001
    16  H    0.010555  -0.005496  -0.000001   0.000137   0.004630   0.000000
    17  C    0.164191   0.074789  -0.000257  -0.003973   0.020717   0.000003
    18  H    0.000024   0.000365   0.000000   0.000001  -0.000010   0.000000
    19  C   -0.014902   0.002097   0.000016   0.000114   0.000659   0.000000
    20  H   -0.000010   0.000007   0.000000   0.000000   0.000000   0.000000
    21  C    0.054454  -0.052721  -0.002836  -0.000544  -0.001543  -0.000001
    22  C    0.259444  -0.106632  -0.014892   0.000530   0.000643  -0.000595
    23  S    0.066779   0.049896   0.028994  -0.001896   0.001798   0.000295
    24  N   -0.001840   0.004817   0.004081   0.000023   0.000215  -0.000001
    25  C    0.385768  -0.025800  -0.000790  -0.047543  -0.000021  -0.025666
    26  C    0.027698  -0.019065   0.013811  -0.006042  -0.000392  -0.079089
    27  C   -0.339866   0.013326  -0.008623   0.022108   0.000014   0.059313
    28  H    0.000806   0.000013   0.000120  -0.000001   0.000000   0.003509
    29  C    0.044906   0.001421  -0.003220  -0.000564   0.000004   0.014930
    30  H    0.000006   0.000000   0.000001   0.000000   0.000000  -0.000008
    31  C   -0.011426  -0.000233   0.000144   0.000100   0.000000   0.000535
    32  H    0.000001   0.000000   0.000000   0.000000   0.000000   0.000000
    33  C    0.094591  -0.000253  -0.000594  -0.003402  -0.000001  -0.001126
    34  C    0.013379  -0.112564  -0.000145  -0.008361  -0.000804  -0.003193
    35  S   -0.227538   0.024082  -0.001538   0.031156   0.000342   0.000852
    36  N    0.018503   0.001311   0.000034   0.004165  -0.000001   0.000168
    37  H   -0.000002  -0.000001   0.000000   0.000000   0.000000   0.000000
    38  H   -0.000039   0.000000   0.000000   0.000000   0.000000   0.000000
             13         14         15         16         17         18
     1  N   -0.026682  -0.021771   0.013559   0.000008   0.001203   0.000000
     2  C    0.307198   0.039835  -0.272565   0.000302   0.039122   0.000005
     3  C   -0.501480   0.156148   0.376360  -0.000811  -0.024401   0.000017
     4  C   -0.690794  -1.307269   0.969938  -0.006985  -0.197631   0.000137
     5  C   -2.328687   0.141857   1.191048  -0.000428  -0.055996  -0.000041
     6  C    1.176426  -1.064081  -1.083830  -0.013841  -0.097715  -0.001401
     7  C   -0.017744  -0.273591  -0.000669   0.010555   0.164191   0.000024
     8  N   -0.182890  -0.176024   0.200041  -0.005496   0.074789   0.000365
     9  O   -0.044691  -0.011653   0.020271  -0.000001  -0.000257   0.000000
    10  O    0.000115   0.018192  -0.011907   0.000137  -0.003973   0.000001
    11  H   -0.030268  -0.093355   0.068113   0.004630   0.020717  -0.000010
    12  H   -0.000014  -0.000348   0.000001   0.000000   0.000003   0.000000
    13  C   30.876314   1.874404 -12.986666   0.060835  -0.836574   0.004413
    14  C    1.874404  25.165520 -11.562095   0.102720  -0.208653   0.005519
    15  C  -12.986666 -11.562095  29.619076   0.112749  -5.548403   0.053265
    16  H    0.060835   0.102720   0.112749   0.586314   0.091140  -0.005810
    17  C   -0.836574  -0.208653  -5.548403   0.091140  11.531043   0.242414
    18  H    0.004413   0.005519   0.053265  -0.005810   0.242414   0.560550
    19  C    0.446121  -1.378348   1.023255  -0.001403  -0.094357   0.018106
    20  H    0.008957   0.009339   0.018671  -0.000161   0.010355  -0.005046
    21  C    1.061593  -4.172286  -4.443590  -0.008199   0.783582  -0.002442
    22  C   -5.401461  -3.477441   5.374331  -0.047375   0.201338  -0.005772
    23  S   -3.933015   0.119170   2.282646  -0.001766   0.087354  -0.000024
    24  N   -1.441575   0.510380   0.621953  -0.001203   0.044234   0.000227
    25  C    0.005586   0.005319  -0.009588  -0.000001  -0.000478   0.000000
    26  C    0.005796   0.065558  -0.016574  -0.000016  -0.002386   0.000000
    27  C   -0.009609  -0.015824   0.012235   0.000003   0.001286   0.000000
    28  H   -0.000001  -0.000015   0.000003   0.000000   0.000000   0.000000
    29  C   -0.000560  -0.002476   0.001390   0.000000   0.000166   0.000000
    30  H    0.000000   0.000000   0.000000   0.000000   0.000000   0.000000
    31  C   -0.000077   0.000106   0.000030   0.000000  -0.000004   0.000000
    32  H    0.000000   0.000000   0.000000   0.000000   0.000000   0.000000
    33  C    0.000410  -0.000141  -0.000596   0.000000   0.000002   0.000000
    34  C    0.018278   0.059684  -0.035843  -0.000068  -0.005851   0.000001
    35  S   -0.003506  -0.012627   0.009056   0.000054   0.002078   0.000000
    36  N   -0.000059  -0.000017   0.000177   0.000000   0.000010   0.000000
    37  H    0.074470   0.053929  -0.013254   0.000015   0.003575  -0.000143
    38  H    0.000000   0.000000   0.000000   0.000000   0.000000   0.000000
             19         20         21         22         23         24
     1  N   -0.000212   0.000000  -0.000441  -0.116170   0.025024   0.001327
     2  C   -0.009733   0.000002   0.080297   0.048815  -0.180082   0.022930
     3  C    0.009415   0.000000  -0.076172  -0.659498   0.210934   0.016397
     4  C    0.025350  -0.000019  -0.098580  -1.189624   0.454979   0.021089
     5  C    0.008262   0.000020  -0.530441   0.370715   0.444446   0.098574
     6  C   -0.099391   0.000136   1.059672   0.727313  -0.585467  -0.066022
     7  C   -0.014902  -0.000010   0.054454   0.259444   0.066779  -0.001840
     8  N    0.002097   0.000007  -0.052721  -0.106632   0.049896   0.004817
     9  O    0.000016   0.000000  -0.002836  -0.014892   0.028994   0.004081
    10  O    0.000114   0.000000  -0.000544   0.000530  -0.001896   0.000023
    11  H    0.000659   0.000000  -0.001543   0.000643   0.001798   0.000215
    12  H    0.000000   0.000000  -0.000001  -0.000595   0.000295  -0.000001
    13  C    0.446121   0.008957   1.061593  -5.401461  -3.933015  -1.441575
    14  C   -1.378348   0.009339  -4.172286  -3.477441   0.119170   0.510380
    15  C    1.023255   0.018671  -4.443590   5.374331   2.282646   0.621953
    16  H   -0.001403  -0.000161  -0.008199  -0.047375  -0.001766  -0.001203
    17  C   -0.094357   0.010355   0.783582   0.201338   0.087354   0.044234
    18  H    0.018106  -0.005046  -0.002442  -0.005772  -0.000024   0.000227
    19  C    6.076785   0.253697   0.433584  -0.252727  -0.111946  -0.037030
    20  H    0.253697   0.561466   0.008685   0.003389   0.000092  -0.000262
    21  C    0.433584   0.008685  16.192970  -1.547555  -1.363367  -0.840835
    22  C   -0.252727   0.003389  -1.547555  11.564738  -0.070252   0.369947
    23  S   -0.111946   0.000092  -1.363367  -0.070252  17.138223   0.340987
    24  N   -0.037030  -0.000262  -0.840835   0.369947   0.340987   7.655602
    25  C   -0.000081   0.000000   0.000416   0.018737  -0.003393  -0.000058
    26  C    0.000092   0.000000  -0.000075   0.061503  -0.013384  -0.000025
    27  C    0.000042   0.000000  -0.000635  -0.036097   0.008813   0.000172
    28  H    0.000000   0.000000   0.000000  -0.000024   0.000045   0.000000
    29  C   -0.000003   0.000000  -0.000004  -0.005573   0.002240   0.000011
    30  H    0.000000   0.000000   0.000000   0.000001   0.000000   0.000000
    31  C    0.000000   0.000000  -0.000004  -0.000144   0.000048   0.000001
    32  H    0.000000   0.000000   0.000000   0.000000   0.000000   0.000000
    33  C   -0.000004   0.000000   0.000022   0.000071  -0.000298  -0.000003
    34  C   -0.000101   0.000000  -0.000135   0.015342  -0.008206  -0.000205
    35  S    0.000066   0.000000  -0.000351  -0.007943   0.002274   0.000028
    36  N    0.000001   0.000000  -0.000004  -0.000124   0.000028   0.000000
    37  H   -0.040023  -0.004968   0.251399  -0.003772  -0.002611  -0.012003
    38  H    0.000000   0.000000   0.000000   0.000000   0.000000   0.000000
             25         26         27         28         29         30
     1  N   -0.171446  -0.151682   0.178785  -0.002145   0.076248   0.000326
     2  C    0.074749  -0.127117  -0.098313   0.008662   0.119826   0.000057
     3  C    1.522416  -1.134665  -1.473645  -0.016599  -0.053015  -0.001439
     4  C   -2.018916   0.384121   0.924897   0.001167  -0.050692  -0.000042
     5  C   -0.682773  -1.301337   0.954223  -0.003021  -0.122436   0.000092
     6  C   -0.512115   0.159587   0.392473  -0.000551  -0.016565   0.000015
     7  C    0.385768   0.027698  -0.339866   0.000806   0.044906   0.000006
     8  N   -0.025800  -0.019065   0.013326   0.000013   0.001421   0.000000
     9  O   -0.000790   0.013811  -0.008623   0.000120  -0.003220   0.000001
    10  O   -0.047543  -0.006042   0.022108  -0.000001  -0.000564   0.000000
    11  H   -0.000021  -0.000392   0.000014   0.000000   0.000004   0.000000
    12  H   -0.025666  -0.079089   0.059313   0.003509   0.014930  -0.000008
    13  C    0.005586   0.005796  -0.009609  -0.000001  -0.000560   0.000000
    14  C    0.005319   0.065558  -0.015824  -0.000015  -0.002476   0.000000
    15  C   -0.009588  -0.016574   0.012235   0.000003   0.001390   0.000000
    16  H   -0.000001  -0.000016   0.000003   0.000000   0.000000   0.000000
    17  C   -0.000478  -0.002386   0.001286   0.000000   0.000166   0.000000
    18  H    0.000000   0.000000   0.000000   0.000000   0.000000   0.000000
    19  C   -0.000081   0.000092   0.000042   0.000000  -0.000003   0.000000
    20  H    0.000000   0.000000   0.000000   0.000000   0.000000   0.000000
    21  C    0.000416  -0.000075  -0.000635   0.000000  -0.000004   0.000000
    22  C    0.018737   0.061503  -0.036097  -0.000024  -0.005573   0.000001
    23  S   -0.003393  -0.013384   0.008813   0.000045   0.002240   0.000000
    24  N   -0.000058  -0.000025   0.000172   0.000000   0.000011   0.000000
    25  C   30.732401   1.326156 -12.789232   0.063247  -0.723964   0.006064
    26  C    1.326156  24.916373 -11.440357   0.100465  -0.004163   0.005384
    27  C  -12.789232 -11.440357  30.292260   0.121428  -5.616443   0.052862
    28  H    0.063247   0.100465   0.121428   0.581378   0.081040  -0.005783
    29  C   -0.723964  -0.004163  -5.616443   0.081040  11.147170   0.241899
    30  H    0.006064   0.005384   0.052862  -0.005783   0.241899   0.560624
    31  C    0.475730  -1.367131   1.217566  -0.001515  -0.156533   0.019121
    32  H    0.006507   0.010449   0.015281  -0.000161   0.012869  -0.005051
    33  C    0.249807  -4.236872  -4.893667  -0.007449   1.088859  -0.003802
    34  C   -5.224851  -3.523219   5.512380  -0.049507   0.045806  -0.005849
    35  S   -3.837309   0.264919   2.337753  -0.001721   0.029757  -0.000017
    36  N   -1.338779   0.518957   0.624673  -0.001244   0.025868   0.000226
    37  H    0.000000   0.000000   0.000000   0.000000   0.000000   0.000000
    38  H    0.083311   0.052000  -0.011059   0.000015   0.001751  -0.000143
             31         32         33         34         35         36
     1  N    0.002195   0.000004  -0.052027  -0.122919   0.045668   0.004561
     2  C   -0.012990  -0.000009   0.057258   0.246844   0.033086  -0.005179
     3  C   -0.120279   0.000170   1.252795   0.690237  -0.697570  -0.103915
     4  C    0.007605   0.000016  -0.482080   0.301259   0.386226   0.074786
     5  C    0.018223  -0.000021  -0.070295  -1.148923   0.450973   0.020844
     6  C    0.008859  -0.000001  -0.074685  -0.633675   0.228688   0.017032
     7  C   -0.011426   0.000001   0.094591   0.013379  -0.227538   0.018503
     8  N   -0.000233   0.000000  -0.000253  -0.112564   0.024082   0.001311
     9  O    0.000144   0.000000  -0.000594  -0.000145  -0.001538   0.000034
    10  O    0.000100   0.000000  -0.003402  -0.008361   0.031156   0.004165
    11  H    0.000000   0.000000  -0.000001  -0.000804   0.000342  -0.000001
    12  H    0.000535   0.000000  -0.001126  -0.003193   0.000852   0.000168
    13  C   -0.000077   0.000000   0.000410   0.018278  -0.003506  -0.000059
    14  C    0.000106   0.000000  -0.000141   0.059684  -0.012627  -0.000017
    15  C    0.000030   0.000000  -0.000596  -0.035843   0.009056   0.000177
    16  H    0.000000   0.000000   0.000000  -0.000068   0.000054   0.000000
    17  C   -0.000004   0.000000   0.000002  -0.005851   0.002078   0.000010
    18  H    0.000000   0.000000   0.000000   0.000001   0.000000   0.000000
    19  C    0.000000   0.000000  -0.000004  -0.000101   0.000066   0.000001
    20  H    0.000000   0.000000   0.000000   0.000000   0.000000   0.000000
    21  C   -0.000004   0.000000   0.000022  -0.000135  -0.000351  -0.000004
    22  C   -0.000144   0.000000   0.000071   0.015342  -0.007943  -0.000124
    23  S    0.000048   0.000000  -0.000298  -0.008206   0.002274   0.000028
    24  N    0.000001   0.000000  -0.000003  -0.000205   0.000028   0.000000
    25  C    0.475730   0.006507   0.249807  -5.224851  -3.837309  -1.338779
    26  C   -1.367131   0.010449  -4.236872  -3.523219   0.264919   0.518957
    27  C    1.217566   0.015281  -4.893667   5.512380   2.337753   0.624673
    28  H   -0.001515  -0.000161  -0.007449  -0.049507  -0.001721  -0.001244
    29  C   -0.156533   0.012869   1.088859   0.045806   0.029757   0.025868
    30  H    0.019121  -0.005051  -0.003802  -0.005849  -0.000017   0.000226
    31  C    6.055421   0.251683   0.206761  -0.185454  -0.084683  -0.019443
    32  H    0.251683   0.561552   0.012762   0.003498   0.000074  -0.000263
    33  C    0.206761   0.012762  17.118593  -1.487935  -1.402038  -0.847619
    34  C   -0.185454   0.003498  -1.487935  11.378915  -0.039546   0.340437
    35  S   -0.084683   0.000074  -1.402038  -0.039546  17.124037   0.339364
    36  N   -0.019443  -0.000263  -0.847619   0.340437   0.339364   7.648255
    37  H    0.000000   0.000000   0.000000   0.000000   0.000000   0.000000
    38  H   -0.036808  -0.004974   0.241255  -0.004269  -0.002289  -0.012046
             37         38
     1  N    0.000000   0.000000
     2  C   -0.000038  -0.000003
     3  C    0.000003  -0.000623
     4  C    0.000018  -0.000027
     5  C   -0.000014   0.000015
     6  C   -0.000414   0.000003
     7  C   -0.000002  -0.000039
     8  N   -0.000001   0.000000
     9  O    0.000000   0.000000
    10  O    0.000000   0.000000
    11  H    0.000000   0.000000
    12  H    0.000000   0.000000
    13  C    0.074470   0.000000
    14  C    0.053929   0.000000
    15  C   -0.013254   0.000000
    16  H    0.000015   0.000000
    17  C    0.003575   0.000000
    18  H   -0.000143   0.000000
    19  C   -0.040023   0.000000
    20  H   -0.004968   0.000000
    21  C    0.251399   0.000000
    22  C   -0.003772   0.000000
    23  S   -0.002611   0.000000
    24  N   -0.012003   0.000000
    25  C    0.000000   0.083311
    26  C    0.000000   0.052000
    27  C    0.000000  -0.011059
    28  H    0.000000   0.000015
    29  C    0.000000   0.001751
    30  H    0.000000  -0.000143
    31  C    0.000000  -0.036808
    32  H    0.000000  -0.004974
    33  C    0.000000   0.241255
    34  C    0.000000  -0.004269
    35  S    0.000000  -0.002289
    36  N    0.000000  -0.012046
    37  H    0.546177   0.000000
    38  H    0.000000   0.546340
 Mulliken atomic charges:
              1
     1  N   -0.402021
     2  C    0.417722
     3  C    0.529282
     4  C   -0.304244
     5  C   -0.263535
     6  C    0.567074
     7  C    0.414657
     8  N   -0.390857
     9  O   -0.525131
    10  O   -0.525930
    11  H    0.309291
    12  H    0.312527
    13  C   -1.484564
    14  C    1.450338
    15  C    0.017411
    16  H    0.124102
    17  C   -0.221925
    18  H    0.135646
    19  C   -0.257397
    20  H    0.135652
    21  C   -0.783910
    22  C   -0.073186
    23  S    1.010645
[...]
 001450,-0.00000184,-0.00000113,0.00020957,0.00045206,-0.00015647,-0.00
 000454,0.00001425,0.00000067,0.00020251,-0.00025700,0.00011705,0.00377
 116,0.00130025,0.00000330,0.00023951,-0.00097775,0.00036191,-0.0005704
 7,-0.00015289,-0.00009598,-0.04094009,-0.03770661,-0.00541099,-0.22674
 383,0.06162861,0.03933665,-0.01984017,0.03325660,0.01099243,-0.0001330
 2,-0.00025749,0.00030840,0.02625386,0.00099691,-0.00227628,0.00067743,
 -0.00010605,0.00019579,-0.00743791,-0.01508734,-0.00411313,-0.00007008
 ,-0.00014617,-0.00006406,-0.00955346,0.00443686,0.00262013,0.66239258,
 -0.04363630,-0.01861019,-0.00082575,0.00922883,-0.00670604,-0.00000685
 ,-0.04590460,-0.11951904,-0.00339536,0.00224700,0.01801941,0.00090511,
 0.00678012,0.00059532,0.00028077,-0.00180623,0.00270536,-0.00026634,0.
 00109748,0.00078977,-0.00020339,-0.00019840,-0.00145236,-0.00019997,-0
 .00365738,-0.00061109,0.00023750,-0.00086627,-0.00025205,0.00043850,0.
 00012188,-0.00001325,0.00001197,-0.00050896,0.00084977,0.00063073,0.00
 001851,0.00005498,0.00004004,-0.00030677,0.00030476,-0.00013735,0.0001
 6306,-0.00020710,0.00009926,0.00000406,0.00000232,0.00001186,-0.000219
 77,0.00001138,-0.00005760,-0.00000087,0.00000261,-0.00000056,0.0000642
 6,0.00014539,-0.00004061,-0.00000806,0.00000795,0.00000061,0.00007908,
 -0.00005419,0.00001602,0.00129895,-0.00021796,0.00014490,0.00011158,-0
 .00037192,0.00012853,-0.00020103,-0.00001134,-0.00005358,0.00204417,0.
 02944684,0.00645385,0.06553392,-0.13699821,-0.02805760,0.03715618,-0.0
 1739579,-0.00901517,-0.00040079,0.00144788,0.00127094,-0.01258986,-0.0
 0508179,-0.00215867,0.00106154,-0.00017350,-0.00036672,0.00542199,0.00
 695577,0.00191427,-0.00002244,0.00015955,0.00017195,0.00105554,-0.0078
 3494,-0.00320605,0.03033948,0.42888440,-0.00101899,0.00030507,0.004189
 60,0.00034056,-0.00031778,0.00178089,0.01018169,-0.00376625,-0.0522993
 0,0.00145537,0.00094306,0.00366791,0.00024467,-0.00010234,0.00649926,0
 .00013065,0.00048685,0.00095925,0.00003392,0.00079248,-0.00344130,-0.0
 0035429,-0.00010239,0.00058804,-0.00012508,-0.00010046,0.00026116,-0.0
 0024946,-0.00088595,0.00124403,0.00003688,-0.00000363,0.00005174,0.000
 20829,-0.00035957,-0.00084700,-0.00006659,0.00008898,0.00000576,-0.000
 02358,-0.00001447,0.00003284,0.00001528,-0.00003576,-0.00006571,-0.000
 00111,-0.00000748,-0.00000033,0.00000221,-0.00000865,0.00005797,0.0000
 0055,-0.00000314,-0.00000623,-0.00001205,-0.00003002,-0.00005315,0.000
 00281,-0.00000039,-0.00000054,0.00000663,0.00001856,0.00006525,0.00007
 013,-0.00019404,-0.00129377,-0.00003599,0.00002522,-0.00005471,0.00009
 515,0.00004029,0.00002624,0.00578305,0.01014713,0.00788615,0.03646986,
 -0.02746955,-0.06805374,0.01331314,-0.00881538,-0.00265212,-0.00014988
 ,0.00128221,-0.00201032,-0.00574667,-0.00352721,0.00442752,0.00035775,
 -0.00024120,0.00045338,0.00185699,0.00370231,0.00014140,-0.00000629,0.
 00012923,-0.00021573,0.00139045,-0.00292796,0.00072666,-0.05686849,0.0
 7044440,0.13142881,-0.00369561,0.00080416,-0.00025669,0.00139610,-0.00
 169184,0.00004057,-0.00133459,-0.02592188,-0.00547164,-0.00080814,-0.0
 0031689,0.00039732,0.00069496,0.00044575,0.00000029,-0.00042703,0.0001
 5860,-0.00007708,-0.00390256,-0.00131600,-0.00065113,0.00096293,0.0002
 9096,0.00001580,-0.00053263,0.00051508,0.00002025,-0.00079596,0.000549
 44,0.00037293,-0.00004543,0.00009364,-0.00003348,-0.00005981,-0.000001
 69,0.00009418,-0.00011314,0.00027172,-0.00013266,-0.00012347,0.0002854
 7,-0.00013156,0.00015001,-0.00013700,0.00007412,-0.00002676,0.00002373
 ,-0.00002645,-0.00011574,-0.00008071,0.00002153,0.00000420,-0.00001705
 ,0.00001226,0.00000375,0.00006603,-0.00002710,0.00003149,-0.00000807,0
 .00000810,0.00001752,-0.00008841,0.00003516,0.00025025,0.00012015,0.00
 003783,-0.00022056,-0.00035362,0.00003680,0.00056918,0.00008436,0.0001
 0310,-0.07095918,0.04932267,0.02072279,-0.00827833,0.00372021,0.002344
 82,-0.00212475,-0.00410376,-0.00047827,0.00034549,-0.00074463,-0.00036
 106,-0.00760433,-0.00409143,-0.00039661,-0.00035542,0.00026017,-0.0001
 1541,-0.00027984,0.01051029,0.00345913,0.00011841,0.00054000,0.0000985
 1,0.01507431,-0.00372643,-0.00210169,-0.04524500,-0.03599219,-0.007920
 60,0.31253671,0.00321116,0.00398144,0.00059207,-0.00185839,0.00176922,
 -0.00005756,-0.02796391,-0.01190819,-0.00100176,0.01002126,-0.00273322
 ,-0.00110810,-0.00168858,-0.00337821,0.00069191,0.00225017,0.00023489,
 0.00018639,0.00204199,0.01072429,-0.00013926,-0.00160892,-0.00077080,0
 .00003518,0.00007522,-0.00076003,-0.00000460,-0.00551267,-0.00543129,-
 0.00149516,0.00009469,0.00010688,0.00001623,0.00060669,-0.00023987,-0.
 00036664,-0.00016204,0.00029937,-0.00021928,0.00029459,0.00007198,-0.0
 0002874,0.00002567,0.00015998,-0.00006278,-0.00003215,-0.00001102,0.00
 000034,0.00010188,-0.00016193,0.00008144,0.00001325,-0.00001848,0.0000
 1980,-0.00006428,-0.00006307,0.00001564,0.00003320,-0.00001715,0.00001
 065,-0.00005231,-0.00003944,0.00001139,-0.00100408,-0.00038792,-0.0000
 3233,-0.00035337,-0.00010694,-0.00010398,0.00097195,0.00010123,0.00022
 084,0.03550566,-0.04103574,-0.01747947,0.04004984,-0.05039309,-0.02015
 547,-0.00234668,0.00902053,0.00144261,-0.00019574,-0.00044106,-0.00009
 539,0.00939542,0.00018593,-0.00088592,0.00039450,-0.00008262,0.0002866
 6,-0.00415276,-0.00859937,-0.00255440,0.00014272,-0.00045733,0.0001200
 3,-0.00795718,0.00259894,-0.00013057,0.01029704,-0.14849847,-0.0300756
 7,-0.03103995,0.27981079,0.00210643,0.00109612,0.00186054,-0.00093630,
 0.00039488,0.00085281,-0.00330372,0.00087161,-0.00234491,-0.00051520,0
 .00023304,-0.00064679,-0.00015228,-0.00027907,-0.00063543,0.00022212,-
 0.00000622,0.00002608,-0.00111010,-0.00185920,0.00062090,0.00039480,-0
 .00004747,0.00079653,0.00041427,0.00016821,-0.00022096,0.00167789,0.00
 043385,-0.00162233,-0.00002671,-0.00000126,0.00005473,0.00006906,-0.00
 019613,-0.00016886,0.00002285,-0.00010580,0.00002885,0.00012811,-0.000
 08309,0.00003761,-0.00005935,0.00003864,-0.00002688,-0.00000213,0.0000
 1162,-0.00000028,0.00006252,0.00002063,0.00000313,-0.00000171,0.000003
 36,0.00000375,-0.00001311,-0.00004023,0.00000216,0.00000003,0.00000058
 ,0.00000098,-0.00000859,0.00003639,-0.00000414,-0.00025461,-0.00009502
 ,-0.00005464,-0.00000822,0.00009404,-0.00007096,-0.00007387,0.00003593
 ,0.00000769,0.01822939,-0.01837186,0.00271025,0.01361451,-0.01696310,0
 .00121715,-0.00053716,0.00144172,0.00666384,-0.00012236,0.00007172,-0.
 00025427,0.00385823,0.00038684,0.00016658,0.00003833,0.00029367,-0.000
 92977,-0.00104627,-0.00378935,-0.00050827,-0.00009898,0.00016992,-0.00
 115236,-0.00291528,-0.00117936,0.00813785,0.00048911,-0.02859979,-0.04
 094362,-0.03531198,0.06985779,0.06817402,-0.00081436,0.00072800,0.0001
 0933,-0.00104053,0.00043035,-0.00002182,0.00523850,-0.00343709,-0.0011
 1780,-0.00329231,0.00453341,-0.00012382,-0.00326980,0.00030019,0.00029
 899,0.00114773,-0.00252806,0.00022805,-0.00186965,-0.00965427,-0.00023
 404,0.00216307,0.00094718,0.00005791,0.00023952,-0.00045609,0.00001930
 ,0.00428924,0.00600089,0.00036418,0.00004231,-0.00011848,-0.00003239,-
 0.00013980,0.00018125,-0.00008291,0.00033310,-0.00088493,0.00050027,0.
 00042244,-0.00079889,0.00031006,-0.00045304,0.00026500,-0.00015358,0.0
 0005852,0.00000803,0.00000333,0.00032973,0.00031997,-0.00006054,-0.000
 01737,0.00003882,-0.00004102,-0.00000927,-0.00019473,0.00007563,-0.000
 06989,0.00002520,-0.00002222,-0.00004211,0.00027000,-0.00010335,-0.000
 57175,-0.00021165,-0.00010101,0.00057240,0.00098182,0.00000337,-0.0017
 1973,-0.00017400,-0.00042682,-0.09183328,0.05513289,0.01862373,0.01726
 532,-0.00338036,-0.00113189,-0.00592467,0.00266418,0.00144945,0.000132
 91,-0.00073874,-0.00006091,0.00814543,0.00459918,0.00046747,0.00034919
 ,0.00002104,0.00008403,-0.00850212,-0.01265042,-0.00267163,-0.00029486
 ,0.00128254,0.00052173,-0.02044865,0.04933547,0.01591375,-0.05007798,-
 0.01636269,0.00077528,-0.18482960,-0.02985871,0.00510622,0.33205508,-0
 .00188133,0.00048336,0.00026253,0.00098960,-0.00033865,-0.00000590,0.0
 0178027,-0.00582343,-0.00260113,0.00076865,0.00023856,0.00022583,-0.00
 136001,0.00020573,-0.00037803,0.00070217,-0.00099842,0.00008466,-0.000
 89332,-0.00218360,-0.00001433,0.00065000,0.00105082,0.00024841,-0.0003
 7249,-0.00006946,0.00008078,0.00188469,0.00126502,0.00031912,-0.000010
 03,-0.00002737,0.00002813,0.00014968,0.00015558,-0.00010057,0.00001851
 ,-0.00010016,0.00003758,0.00005809,-0.00008293,0.00005261,-0.00006086,
 0.00003235,-0.00002662,0.00000633,0.00000216,-0.00000542,0.00004148,0.
 00003111,-0.00000029,-0.00000408,0.00000651,-0.00000302,-0.00000865,-0
 .00002362,0.00000290,-0.00000711,0.00000248,-0.00000289,0.00000033,0.0
 0003448,-0.00001285,-0.00014212,-0.00001015,-0.00004192,0.00007687,0.0
 0007951,-0.00003877,-0.00013663,0.00003086,-0.00001411,0.02144831,-0.3
 0704363,-0.07113940,-0.04156401,-0.05079242,-0.01389516,-0.00172844,-0
 .00758221,-0.00267172,0.00070651,-0.00189060,-0.00081461,-0.01548925,-
 0.00663432,-0.00013352,-0.00023606,-0.00000489,-0.00017038,0.00655910,
 0.02424040,0.00572497,0.00014572,0.00004831,-0.00022959,0.03907525,-0.
 03449109,-0.01334960,-0.00591530,-0.02673436,-0.00937391,0.04169335,-0
 .03365132,-0.00424581,-0.04602421,0.44998832,-0.00148491,-0.00011749,0
 .00004526,0.00114711,-0.00028393,-0.00039123,0.00012717,-0.00242200,0.
 00337851,0.00153318,-0.00105747,-0.00009998,0.00017095,0.00002557,0.00
 033974,0.00004060,0.00026609,-0.00001593,0.00059588,0.00291332,-0.0000
 0297,-0.00058012,-0.00004353,-0.00029563,-0.00049226,-0.00012967,0.000
 05301,-0.00193338,-0.00139067,0.00067437,0.00001148,0.00002364,-0.0000
 1644,0.00013560,0.00009746,-0.00000788,-0.00007056,0.00021016,-0.00010
 745,-0.00008255,0.00012297,-0.00009291,0.00008633,-0.00003112,0.000032
 18,-0.00000838,-0.00001022,-0.00000349,-0.00006216,-0.00006460,0.00000
 922,0.00000532,-0.00000696,0.00000263,0.00000119,0.00004462,0.00000090
 ,0.00001083,-0.00000484,0.00000142,-0.00000026,-0.00006202,0.00001326,
 0.00008427,0.00005210,0.00002492,-0.00008815,-0.00018960,0.00003012,0.
 00036923,0.00001418,0.00008699,0.00856661,-0.07443947,-0.08173788,-0.0
 1145385,-0.01773808,0.01189251,0.00060094,-0.00302212,0.00111427,0.000
 21076,-0.00053155,0.00023231,-0.00514281,-0.00189685,-0.00145542,-0.00
 008967,-0.00001905,-0.00002931,0.00313170,0.00671569,0.00593758,0.0001
 6627,-0.00036404,0.00072307,0.01281174,-0.01427196,-0.00635420,0.00452
 444,-0.00686466,0.00725401,0.02567137,0.00230182,-0.04131499,-0.037832
 05,0.11129003,0.10207632,-0.00000822,0.00001909,0.00000113,0.00002210,
 -0.00007368,0.00000057,0.00001261,-0.00003421,0.00000348,-0.00006752,0
 .00005233,0.00002559,-0.00010744,-0.00009701,0.00000481,-0.00018801,0.
 00043526,-0.00021917,0.00004935,0.00002143,0.00000494,0.00001115,0.000
 03092,0.00000097,0.00000192,0.00004948,-0.00000156,-0.00001541,-0.0000
 2419,-0.00000075,0.00000146,0.00002026,-0.00000443,0.00000065,-0.00000
 358,-0.00000029,-0.01746462,-0.02060336,0.00516749,-0.00274939,0.00275
 379,-0.00212779,-0.00020922,0.00082819,-0.00024636,0.00001489,-0.00006
 960,0.00022052,0.00103470,0.00128141,-0.00169827,0.00032498,0.00034611
 ,-0.00013839,0.00891777,0.00541627,-0.00151118,0.00071274,-0.00000728,
 0.00090466,-0.22045388,-0.13986320,0.02933199,-0.00059170,-0.00111361,
 0.00026415,-0.00028835,0.00031017,-0.00008750,0.00239646,-0.00080192,0
 .00093475,0.00000272,-0.00001080,-0.00000107,0.00000288,-0.00001181,-0
 .00000480,-0.00000602,0.00000214,0.00000225,0.00000132,-0.00000071,-0.
 00000093,0.00000207,0.00000473,0.00000059,-0.00000037,0.00000081,0.000
 00031,0.00000096,-0.00000173,-0.00000012,-0.00000122,0.00000046,0.0000
 0018,0.00000174,0.00000321,-0.00000053,-0.00000612,0.00000140,-0.00000
 517,0.00001080,0.00001288,0.00000015,-0.00002414,-0.00000169,0.0000033
 8,0.22865879,-0.00001821,-0.00000640,-0.00000102,0.00003546,0.00004238
 ,0.00000649,0.00002121,0.00000153,-0.00000463,-0.00001295,-0.00000521,
 -0.00002176,0.00003646,0.00002365,-0.00002789,0.00010747,-0.00006092,0
 .00022739,0.00003404,0.00001433,0.00000256,-0.00003662,-0.00003411,-0.
 00001993,-0.00003836,-0.00002142,-0.00000203,-0.00001170,-0.00001386,-
 0.00000561,0.00001102,-0.00000264,0.00002949,0.00000326,-0.00000118,-0
 .00000104,0.00748688,0.00896871,-0.00101264,0.00162467,0.00028892,0.00
 176443,0.00063629,-0.00031543,-0.00009952,-0.00005222,-0.00016307,-0.0
 0046836,0.00218545,-0.00234624,0.00483723,-0.00111607,-0.00066062,0.00
 019257,-0.02239498,-0.01190359,0.00330336,0.00044940,0.00018794,-0.002
 18333,-0.14010682,-0.17432489,0.03488672,0.00061380,0.00034492,0.00005
 886,-0.00011577,0.00007785,-0.00025694,-0.00045978,0.00039555,-0.00112
 632,0.00000354,-0.00000609,-0.00000776,0.00000167,-0.00000963,0.000001
 06,-0.00000304,0.00000560,0.00000012,0.00000053,-0.00000077,-0.0000002
 4,0.00000325,0.00000187,0.00000142,0.00000019,0.00000030,0.00000040,-0
 .00000060,-0.00000086,-0.00000153,-0.00000096,0.00000027,0.00000025,-0
 .00000149,0.00000179,0.00000325,-0.00000558,-0.00000563,0.00000803,0.0
 0000767,0.00000870,0.00000194,-0.00001530,-0.00000221,0.00000142,0.151
 12839,0.17952075,-0.00001413,-0.00000239,-0.00000878,-0.00000686,0.000
 05328,0.00002062,-0.00000401,0.00001734,-0.00000506,0.00001095,0.00000
 340,-0.00007933,-0.00000949,-0.00010516,-0.00002545,-0.00023449,0.0003
 0917,0.00035089,0.00001850,0.00000163,0.00000890,0.00000311,-0.0000088
 1,-0.00000546,-0.00000815,-0.00004883,-0.00002466,-0.00000482,-0.00000
 357,-0.00000500,0.00000677,0.00000339,0.00001487,-0.00000172,0.0000022
 7,0.00000258,-0.00679920,-0.00507898,0.00486565,-0.00144547,0.00244878
 ,0.00292177,0.00009793,-0.00028362,-0.00062693,0.00017361,-0.00056673,
 -0.00105901,-0.00213518,0.00467406,0.00672319,0.00041193,0.00030998,-0
 .00001301,0.00965866,0.00784734,0.00267353,0.00069570,-0.00229635,-0.0
 0441543,0.02965927,0.03443453,-0.04541075,-0.00027266,-0.00030983,0.00
 019300,0.00008571,-0.00015375,-0.00043335,0.00093026,-0.00116758,-0.00
 173514,-0.00000720,0.00001242,-0.00000210,-0.00000173,0.00000467,0.000
 00839,0.00000329,-0.00000140,-0.00000478,-0.00000082,-0.00000027,0.000
 00114,-0.00000131,-0.00000388,0.00000067,0.00000047,-0.00000103,0.0000
 0035,0.00000014,0.00000148,-0.00000263,0.00000104,-0.00000047,0.000000
 14,0.00000080,-0.00000388,0.00000248,-0.00000105,0.00000564,0.00001761
 ,-0.00000595,-0.00000805,0.00000200,0.00001933,0.00000140,-0.00000440,
 -0.03082341,-0.04008638,0.03605302,0.00001117,0.00003015,-0.00000329,0
 .00005100,0.00002095,-0.00000543,-0.00020365,0.00046402,0.00015397,-0.
 00010652,-0.00010078,0.00000107,-0.00006561,0.00004996,-0.00002904,0.0
 0001276,-0.00003332,0.00000013,0.00002185,-0.00007104,0.00000638,-0.00
 000883,0.00001900,-0.00000328,-0.00001618,-0.00002470,0.00000280,0.000
 00134,0.00004698,-0.00000192,0.00000031,-0.00000328,0.00000066,0.00000
 132,0.00002096,0.00000185,0.00000239,-0.00000988,0.00000258,0.00000202
 ,-0.00000989,0.00000520,-0.00000570,0.00000107,-0.00000226,0.00000130,
 -0.00000051,0.00000101,0.00000186,0.00000405,-0.00000092,-0.00000033,0
 .00000059,-0.00000032,0.00000120,-0.00000135,0.00000036,-0.00000108,0.
 00000044,-0.00000022,0.00000171,0.00000290,0.00000041,-0.00000702,0.00
 000201,0.00000404,0.00001048,0.00001184,-0.00000102,-0.00002295,-0.000
 00203,-0.00000418,-0.01751993,-0.02121254,-0.00405426,-0.00287165,0.00
 301827,0.00162107,-0.00021281,0.00083787,0.00018445,0.00002833,-0.0001
 0815,-0.00016781,0.00090129,0.00158755,0.00131864,0.00033370,0.0003689
 2,0.00011730,0.00919475,0.00581920,0.00121550,0.00076762,-0.00016317,-
 0.00068650,-0.21840480,-0.14112569,-0.02291926,-0.00059160,-0.00114640
 ,-0.00018712,-0.00028822,0.00031195,0.00006390,0.00246033,-0.00091934,
 -0.00068520,-0.00000041,-0.00000021,0.00000018,0.22652056,-0.00003736,
 -0.00003094,0.00002124,0.00003221,0.00001364,-0.00000182,0.00013582,-0
 .00010667,-0.00017886,0.00003619,0.00003574,0.00002331,-0.00001483,-0.
 00000413,0.00001395,0.00002158,0.00000031,0.00000457,0.00003640,0.0000
 3690,-0.00000654,-0.00001702,-0.00000633,0.00000042,-0.00001147,-0.000
 01285,0.00000604,-0.00003743,-0.00001687,-0.00000011,0.00000331,-0.000
 00123,0.00000147,0.00001147,-0.00000556,-0.00002718,0.00000460,-0.0000
 0682,0.00000859,0.00000192,-0.00000951,0.00000083,-0.00000332,0.000005
 23,-0.00000097,0.00000057,-0.00000072,0.00000040,0.00000379,0.00000194
 ,-0.00000155,0.00000010,0.00000054,-0.00000050,-0.00000093,-0.00000101
 ,0.00000150,-0.00000114,0.00000036,-0.00000038,-0.00000169,0.00000184,
 -0.00000341,-0.00000575,-0.00000630,-0.00000596,0.00000844,0.00000902,
 -0.00000231,-0.00001720,-0.00000237,-0.00000231,0.00801586,0.00948029,
 0.00088006,0.00180499,-0.00007476,-0.00140731,0.00062129,-0.00027919,0
 .00009162,-0.00008270,-0.00007414,0.00037171,0.00253425,-0.00315133,-0
 .00380300,-0.00114217,-0.00070363,-0.00017177,-0.02307661,-0.01285274,
 -0.00273409,0.00031536,0.00056794,0.00172334,-0.14138108,-0.18020763,-
 0.02772272,0.00063799,0.00036571,-0.00005062,-0.00013193,0.00011243,0.
 00020025,-0.00057679,0.00058920,0.00088276,-0.00000033,-0.00000031,0.0
 0000015,0.15231362,0.18633394,0.00000111,0.00001235,-0.00000854,-0.000
 01999,-0.00000133,0.00000825,0.00020041,-0.00024754,0.00041224,0.00000
 307,0.00009568,-0.00003725,-0.00000925,-0.00000859,-0.00008188,0.00000
 265,-0.00001915,-0.00000369,0.00000335,-0.00005761,0.00002689,0.000015
 77,0.00000290,-0.00000867,0.00000548,0.00000339,-0.00000559,0.00001292
 ,0.00005001,-0.00002904,0.00000137,-0.00000209,0.00000275,-0.00000838,
 -0.00000067,0.00001759,0.00000690,-0.00001265,-0.00000108,0.00000147,-
 0.00000298,0.00000901,-0.00000303,0.00000035,-0.00000511,0.00000076,0.
 00000043,0.00000115,0.00000107,0.00000381,0.00000048,-0.00000052,0.000
 00105,0.00000027,0.00000007,-0.00000165,-0.00000263,-0.00000099,0.0000
 0048,0.00000008,-0.00000069,0.00000411,0.00000248,0.00000056,-0.000003
 26,0.00001878,0.00000557,0.00000784,0.00000162,-0.00001852,-0.00000167
 ,-0.00000505,0.00520356,0.00382830,0.00440812,0.00105004,-0.00204605,0
 .00340701,-0.00014052,0.00028363,-0.00065904,-0.00012300,0.00046928,-0
 .00116131,0.00166817,-0.00367582,0.00766162,-0.00029254,-0.00023108,0.
 00002114,-0.00727444,-0.00617211,0.00334610,-0.00052175,0.00181816,-0.
 00485041,-0.02322336,-0.02726074,-0.04157658,0.00018345,0.00024918,0.0
 0017206,-0.00006748,0.00011434,-0.00046794,-0.00071363,0.00091060,-0.0
 0199251,-0.00000021,-0.00000008,0.00000046,0.02405054,0.03188919,0.031
 37821||0.00000060,-0.00000038,-0.00000093,-0.00000017,-0.00000041,0.00
 000015,-0.00000028,0.00000118,0.00000096,-0.00000001,-0.00000066,-0.00
 000077,0.00000003,0.00000026,-0.00000025,-0.00000042,-0.00000088,0.000
 00069,-0.00000001,-0.00000033,0.00000046,-0.00000025,0.00000053,-0.000
 00046,0.00000080,0.00000028,0.00000009,-0.00000056,0.00000008,-0.00000
 013,-0.00000049,-0.00000031,0.00000039,0.00000042,0.00000043,0.0000005
 3,0.00000044,-0.00000115,-0.00000021,-0.00000021,-0.00000066,-0.000000
 08,-0.00000024,-0.00000073,0.00000012,-0.00000048,-0.00000066,0.,-0.00
 000028,-0.00000106,-0.00000003,-0.00000050,-0.00000099,0.00000012,-0.0
 0000017,-0.00000123,0.00000023,-0.00000022,-0.00000134,0.00000004,-0.0
 0000011,-0.00000107,-0.00000027,0.00000021,-0.00000046,-0.00000017,0.0
 0000031,-0.00000050,-0.00000036,0.00000023,-0.00000063,0.00000062,-0.0
 0000006,0.00000151,-0.00000013,0.00000027,0.00000124,0.00000036,0.0000
 0023,-0.00000021,-0.00000036,0.00000052,0.00000100,0.00000010,0.000000
 45,0.00000120,0.00000003,0.00000050,0.00000100,-0.00000005,-0.00000013
 ,0.00000125,-0.00000005,0.00000024,0.00000137,-0.00000010,0.00000023,0
 .00000074,-0.00000012,-0.00000007,0.00000012,-0.00000037,-0.00000043,0
 .00000105,0.00000009,-0.00000038,0.00000041,-0.00000022,0.00000020,-0.
 00000131,0.00000010,-0.00000020,0.00000132,0.|||@


 Any fool can criticize, condemn, and complain -- and most do.
 -- Dale Carnegie
 Job cpu time:  0 days  3 hours 18 minutes  3.0 seconds.
 File lengths (MBytes):  RWF=   1288 Int=      0 D2E=      0 Chk=     25 Scr=      1
 Normal termination of Gaussian 09 at Mon Sep 04 15:51:50 2023.
