 Entering Link 1 = C:\G09W\l1.exe PID=     19888.
  
 Copyright (c) 1988,1990,1992,1993,1995,1998,2003,2009,2010,
            Gaussian, Inc.  All Rights Reserved.
  
 This is part of the Gaussian(R) 09 program.  It is based on
 the Gaussian(R) 03 system (copyright 2003, Gaussian, Inc.),
 the Gaussian(R) 98 system (copyright 1998, Gaussian, Inc.),
 the Gaussian(R) 94 system (copyright 1995, Gaussian, Inc.),
 the Gaussian 92(TM) system (copyright 1992, Gaussian, Inc.),
 the Gaussian 90(TM) system (copyright 1990, Gaussian, Inc.),
 the Gaussian 88(TM) system (copyright 1988, Gaussian, Inc.),
 the Gaussian 86(TM) system (copyright 1986, Carnegie Mellon
 University), and the Gaussian 82(TM) system (copyright 1983,
 Carnegie Mellon University). Gaussian is a federally registered
 trademark of Gaussian, Inc.
  
 This software contains proprietary and confidential information,
 including trade secrets, belonging to Gaussian, Inc.
  
 This software is provided under written license and may be
 used, copied, transmitted, or stored only in accord with that
 written license.
  
 The following legend is applicable only to US Government
 contracts under FAR:
  
                    RESTRICTED RIGHTS LEGEND
  
 Use, reproduction and disclosure by the US Government is
 subject to restrictions as set forth in subparagraphs (a)
 and (c) of the Commercial Computer Software - Restricted
 Rights clause in FAR 52.227-19.
  
 Gaussian, Inc.
 340 Quinnipiac St., Bldg. 40, Wallingford CT 06492
  
  
 ---------------------------------------------------------------
 Warning -- This program may not be used in any manner that
 competes with the business of Gaussian, Inc. or will provide
 assistance to any competitor of Gaussian, Inc.  The licensee
 of this program is prohibited from giving any competitor of
 Gaussian, Inc. access to this program.  By using this program,
 the user acknowledges that Gaussian, Inc. is engaged in the
 business of creating and licensing software in the field of
 computational chemistry and represents and warrants to the
 licensee that it is not a competitor of Gaussian, Inc. and that
 it will not use this program in any manner prohibited above.
 ---------------------------------------------------------------
  

 Cite this work as:
 Gaussian 09, Revision B.01,
 M. J. Frisch, G. W. Trucks, H. B. Schlegel, G. E. Scuseria, 
 M. A. Robb, J. R. Cheeseman, G. Scalmani, V. Barone, B. Mennucci, 
 G. A. Petersson, H. Nakatsuji, M. Caricato, X. Li, H. P. Hratchian, 
 A. F. Izmaylov, J. Bloino, G. Zheng, J. L. Sonnenberg, M. Hada, 
 M. Ehara, K. Toyota, R. Fukuda, J. Hasegawa, M. Ishida, T. Nakajima, 
 Y. Honda, O. Kitao, H. Nakai, T. Vreven, J. A. Montgomery, Jr., 
 J. E. Peralta, F. Ogliaro, M. Bearpark, J. J. Heyd, E. Brothers, 
 K. N. Kudin, V. N. Staroverov, T. Keith, R. Kobayashi, J. Normand, 
 K. Raghavachari, A. Rendell, J. C. Burant, S. S. Iyengar, J. Tomasi, 
 M. Cossi, N. Rega, J. M. Millam, M. Klene, J. E. Knox, J. B. Cross, 
 V. Bakken, C. Adamo, J. Jaramillo, R. Gomperts, R. E. Stratmann, 
 O. Yazyev, A. J. Austin, R. Cammi, C. Pomelli, J. W. Ochterski, 
 R. L. Martin, K. Morokuma, V. G. Zakrzewski, G. A. Voth, 
 P. Salvador, J. J. Dannenberg, S. Dapprich, A. D. Daniels, 
 O. Farkas, J. B. Foresman, J. V. Ortiz, J. Cioslowski, 
 and D. J. Fox, Gaussian, Inc., Wallingford CT, 2010.
 
 ******************************************
 Gaussian 09:  IA32W-G09RevB.01 12-Aug-2010
                20-Sep-2023 
 ******************************************
 %nprocshared=6
 Will use up to    6 processors via shared memory.
 %chk=G:\Meu Drive\POS-DOC-IME\SUBSTITUINTES-DOADORES\DPP-substituido\DPP-SUB-5b\
 DPP-SUB-5B-ANION-CONT.chk
 ----------------------------------------------------
 # opt=tight freq b3lyp/6-31+g(d,p) geom=connectivity
 ----------------------------------------------------
 1/7=10,14=-1,18=20,19=15,26=3,38=1,57=2/1,3;
 2/9=110,12=2,17=6,18=5,40=1/2;
 3/5=1,6=6,7=111,11=2,16=1,25=1,30=1,71=1,74=-5/1,2,3;
 4//1;
 5/5=2,38=5/2;
 6/7=2,8=2,9=2,10=2,28=1/1;
 7//1,2,3,16;
 1/7=10,14=-1,18=20,19=15/3(2);
 2/9=110/2;
 99//99;
 2/9=110/2;
 3/5=1,6=6,7=111,11=2,16=1,25=1,30=1,71=1,74=-5/1,2,3;
 4/5=5,16=3/1;
 5/5=2,38=5/2;
 7//1,2,3,16;
 1/7=10,14=-1,18=20,19=15/3(-5);
 2/9=110/2;
 6/7=2,8=2,9=2,10=2,19=2,28=1/1;
 99/9=1/99;
 -------
 Energy:
 -------
 Symbolic Z-matrix:
 Charge = -1 Multiplicity = 2
 N                    -1.47978   1.52177  -0.0712 
 C                    -0.09888   1.80542  -0.1336 
 C                    -1.77181   0.14431  -0.11245 
 C                    -0.51193  -0.48866  -0.15397 
 C                     0.51193   0.48866  -0.15397 
 C                     1.77181  -0.14431  -0.11245 
 C                     0.09888  -1.80542  -0.1336 
 N                     1.47978  -1.52177  -0.0712 
 O                     0.36466   2.95128  -0.18394 
 O                    -0.36466  -2.95127  -0.18394 
 H                     2.15063  -2.25171  -0.2537 
 H                    -2.15063   2.25171  -0.2537 
 C                     5.42756   0.63822  -0.02864 
 C                     4.33028  -0.28836   0.14329 
 C                     4.61391  -1.61518   0.55594 
 H                     3.81145  -2.31216   0.77144 
 C                     5.92385  -2.0222    0.74073 
 H                     6.12997  -3.03852   1.06401 
 C                     7.00075  -1.11922   0.52796 
 H                     8.02132  -1.46463   0.67449 
 C                     6.7679    0.18732   0.15834 
 C                     3.0834    0.37003  -0.09765 
 S                     3.45328   2.04683  -0.46644 
 N                     5.11917   1.90523  -0.34785 
 C                    -5.42756  -0.63822  -0.02864 
 C                    -4.33028   0.28836   0.14329 
 C                    -4.61391   1.61519   0.55594 
 H                    -3.81145   2.31216   0.77144 
 C                    -5.92385   2.0222    0.74072 
 H                    -6.12997   3.03852   1.064 
 C                    -7.00075   1.11922   0.52796 
 H                    -8.02132   1.46463   0.67449 
 C                    -6.7679   -0.18732   0.15834 
 C                    -3.0834   -0.37003  -0.09765 
 S                    -3.45328  -2.04683  -0.46643 
 N                    -5.11917  -1.90523  -0.34784 
 H                     7.57863   0.89457   0.0119 
 H                    -7.57863  -0.89457   0.0119 
 

 GradGradGradGradGradGradGradGradGradGradGradGradGradGradGradGradGradGrad
 Berny optimization.
 Initialization pass.
                           ----------------------------
                           !    Initial Parameters    !
                           ! (Angstroms and Degrees)  !
 --------------------------                            --------------------------
 ! Name  Definition              Value          Derivative Info.                !
 --------------------------------------------------------------------------------
 ! R1    R(1,2)                  1.4111         estimate D2E/DX2                !
 ! R2    R(1,3)                  1.4087         estimate D2E/DX2                !
 ! R3    R(1,12)                 1.008          estimate D2E/DX2                !
 ! R4    R(2,5)                  1.4517         estimate D2E/DX2                !
 ! R5    R(2,9)                  1.2371         estimate D2E/DX2                !
 ! R6    R(3,4)                  1.4106         estimate D2E/DX2                !
 ! R7    R(3,34)                 1.4089         estimate D2E/DX2                !
 ! R8    R(4,5)                  1.4154         estimate D2E/DX2                !
 ! R9    R(4,7)                  1.4517         estimate D2E/DX2                !
 ! R10   R(5,6)                  1.4106         estimate D2E/DX2                !
 ! R11   R(6,8)                  1.4087         estimate D2E/DX2                !
 ! R12   R(6,22)                 1.4089         estimate D2E/DX2                !
 ! R13   R(7,8)                  1.4111         estimate D2E/DX2                !
 ! R14   R(7,10)                 1.2371         estimate D2E/DX2                !
 ! R15   R(8,11)                 1.008          estimate D2E/DX2                !
 ! R16   R(13,14)                1.4464         estimate D2E/DX2                !
 ! R17   R(13,21)                1.4265         estimate D2E/DX2                !
 ! R18   R(13,24)                1.3425         estimate D2E/DX2                !
 ! R19   R(14,15)                1.4182         estimate D2E/DX2                !
 ! R20   R(14,22)                1.4305         estimate D2E/DX2                !
 ! R21   R(15,16)                1.0845         estimate D2E/DX2                !
 ! R22   R(15,17)                1.3841         estimate D2E/DX2                !
 ! R23   R(17,18)                1.0862         estimate D2E/DX2                !
 ! R24   R(17,19)                1.4214         estimate D2E/DX2                !
 ! R25   R(19,20)                1.0874         estimate D2E/DX2                !
 ! R26   R(19,21)                1.3776         estimate D2E/DX2                !
 ! R27   R(21,37)                1.0858         estimate D2E/DX2                !
 ! R28   R(22,23)                1.7563         estimate D2E/DX2                !
 ! R29   R(23,24)                1.6761         estimate D2E/DX2                !
 ! R30   R(25,26)                1.4464         estimate D2E/DX2                !
 ! R31   R(25,33)                1.4265         estimate D2E/DX2                !
 ! R32   R(25,36)                1.3425         estimate D2E/DX2                !
 ! R33   R(26,27)                1.4182         estimate D2E/DX2                !
 ! R34   R(26,34)                1.4305         estimate D2E/DX2                !
 ! R35   R(27,28)                1.0845         estimate D2E/DX2                !
 ! R36   R(27,29)                1.3841         estimate D2E/DX2                !
 ! R37   R(29,30)                1.0862         estimate D2E/DX2                !
 ! R38   R(29,31)                1.4214         estimate D2E/DX2                !
 ! R39   R(31,32)                1.0874         estimate D2E/DX2                !
 ! R40   R(31,33)                1.3776         estimate D2E/DX2                !
 ! R41   R(33,38)                1.0858         estimate D2E/DX2                !
 ! R42   R(34,35)                1.7563         estimate D2E/DX2                !
 ! R43   R(35,36)                1.6761         estimate D2E/DX2                !
 ! A1    A(2,1,3)              113.4609         estimate D2E/DX2                !
 ! A2    A(2,1,12)             119.8473         estimate D2E/DX2                !
 ! A3    A(3,1,12)             124.3889         estimate D2E/DX2                !
 ! A4    A(1,2,5)              103.3            estimate D2E/DX2                !
 ! A5    A(1,2,9)              123.6875         estimate D2E/DX2                !
 ! A6    A(5,2,9)              132.9951         estimate D2E/DX2                !
 ! A7    A(1,3,4)              104.7433         estimate D2E/DX2                !
 ! A8    A(1,3,34)             123.3429         estimate D2E/DX2                !
 ! A9    A(4,3,34)             131.9112         estimate D2E/DX2                !
 ! A10   A(3,4,5)              109.6488         estimate D2E/DX2                !
 ! A11   A(3,4,7)              141.4838         estimate D2E/DX2                !
 ! A12   A(5,4,7)              108.7802         estimate D2E/DX2                !
 ! A13   A(2,5,4)              108.7802         estimate D2E/DX2                !
 ! A14   A(2,5,6)              141.4838         estimate D2E/DX2                !
 ! A15   A(4,5,6)              109.6488         estimate D2E/DX2                !
 ! A16   A(5,6,8)              104.7433         estimate D2E/DX2                !
 ! A17   A(5,6,22)             131.9112         estimate D2E/DX2                !
 ! A18   A(8,6,22)             123.3429         estimate D2E/DX2                !
 ! A19   A(4,7,8)              103.3            estimate D2E/DX2                !
 ! A20   A(4,7,10)             132.9952         estimate D2E/DX2                !
 ! A21   A(8,7,10)             123.6874         estimate D2E/DX2                !
 ! A22   A(6,8,7)              113.4608         estimate D2E/DX2                !
 ! A23   A(6,8,11)             124.3888         estimate D2E/DX2                !
 ! A24   A(7,8,11)             119.8473         estimate D2E/DX2                !
 ! A25   A(14,13,21)           119.6532         estimate D2E/DX2                !
 ! A26   A(14,13,24)           117.2956         estimate D2E/DX2                !
 ! A27   A(21,13,24)           123.0469         estimate D2E/DX2                !
 ! A28   A(13,14,15)           118.8297         estimate D2E/DX2                !
 ! A29   A(13,14,22)           110.2668         estimate D2E/DX2                !
 ! A30   A(15,14,22)           130.8405         estimate D2E/DX2                !
 ! A31   A(14,15,16)           120.7377         estimate D2E/DX2                !
 ! A32   A(14,15,17)           120.2151         estimate D2E/DX2                !
 ! A33   A(16,15,17)           118.9974         estimate D2E/DX2                !
 ! A34   A(15,17,18)           119.6339         estimate D2E/DX2                !
 ! A35   A(15,17,19)           120.6801         estimate D2E/DX2                !
 ! A36   A(18,17,19)           119.6813         estimate D2E/DX2                !
 ! A37   A(17,19,20)           119.2835         estimate D2E/DX2                !
 ! A38   A(17,19,21)           120.9706         estimate D2E/DX2                !
 ! A39   A(20,19,21)           119.7395         estimate D2E/DX2                !
 ! A40   A(13,21,19)           119.5885         estimate D2E/DX2                !
 ! A41   A(13,21,37)           118.5568         estimate D2E/DX2                !
 ! A42   A(19,21,37)           121.8524         estimate D2E/DX2                !
 ! A43   A(6,22,14)            130.1803         estimate D2E/DX2                !
 ! A44   A(6,22,23)            122.847          estimate D2E/DX2                !
 ! A45   A(14,22,23)           106.9313         estimate D2E/DX2                !
 ! A46   A(22,23,24)            96.5351         estimate D2E/DX2                !
 ! A47   A(13,24,23)           108.9571         estimate D2E/DX2                !
 ! A48   A(26,25,33)           119.6532         estimate D2E/DX2                !
 ! A49   A(26,25,36)           117.2956         estimate D2E/DX2                !
 ! A50   A(33,25,36)           123.0469         estimate D2E/DX2                !
 ! A51   A(25,26,27)           118.8297         estimate D2E/DX2                !
 ! A52   A(25,26,34)           110.2668         estimate D2E/DX2                !
 ! A53   A(27,26,34)           130.8405         estimate D2E/DX2                !
 ! A54   A(26,27,28)           120.7377         estimate D2E/DX2                !
 ! A55   A(26,27,29)           120.2151         estimate D2E/DX2                !
 ! A56   A(28,27,29)           118.9975         estimate D2E/DX2                !
 ! A57   A(27,29,30)           119.6339         estimate D2E/DX2                !
 ! A58   A(27,29,31)           120.6801         estimate D2E/DX2                !
 ! A59   A(30,29,31)           119.6813         estimate D2E/DX2                !
 ! A60   A(29,31,32)           119.2835         estimate D2E/DX2                !
 ! A61   A(29,31,33)           120.9706         estimate D2E/DX2                !
 ! A62   A(32,31,33)           119.7396         estimate D2E/DX2                !
 ! A63   A(25,33,31)           119.5885         estimate D2E/DX2                !
 ! A64   A(25,33,38)           118.5568         estimate D2E/DX2                !
 ! A65   A(31,33,38)           121.8524         estimate D2E/DX2                !
 ! A66   A(3,34,26)            130.1803         estimate D2E/DX2                !
 ! A67   A(3,34,35)            122.847          estimate D2E/DX2                !
 ! A68   A(26,34,35)           106.9313         estimate D2E/DX2                !
 ! A69   A(34,35,36)            96.5351         estimate D2E/DX2                !
 ! A70   A(25,36,35)           108.9571         estimate D2E/DX2                !
 ! D1    D(3,1,2,5)             -2.7049         estimate D2E/DX2                !
 ! D2    D(3,1,2,9)            175.9527         estimate D2E/DX2                !
 ! D3    D(12,1,2,5)          -166.2205         estimate D2E/DX2                !
 ! D4    D(12,1,2,9)            12.4371         estimate D2E/DX2                !
 ! D5    D(2,1,3,4)              2.1904         estimate D2E/DX2                !
 ! D6    D(2,1,3,34)          -178.3322         estimate D2E/DX2                !
 ! D7    D(12,1,3,4)           164.8384         estimate D2E/DX2                !
 ! D8    D(12,1,3,34)          -15.6842         estimate D2E/DX2                !
 ! D9    D(1,2,5,4)              2.1406         estimate D2E/DX2                !
 ! D10   D(1,2,5,6)           -173.8646         estimate D2E/DX2                !
 ! D11   D(9,2,5,4)           -176.3322         estimate D2E/DX2                !
 ! D12   D(9,2,5,6)              7.6626         estimate D2E/DX2                !
 ! D13   D(1,3,4,5)             -0.6893         estimate D2E/DX2                !
 ! D14   D(1,3,4,7)            175.2947         estimate D2E/DX2                !
 ! D15   D(34,3,4,5)           179.8974         estimate D2E/DX2                !
 ! D16   D(34,3,4,7)            -4.1186         estimate D2E/DX2                !
 ! D17   D(1,3,34,26)           -9.8105         estimate D2E/DX2                !
 ! D18   D(1,3,34,35)          167.5284         estimate D2E/DX2                !
 ! D19   D(4,3,34,26)          169.5104         estimate D2E/DX2                !
 ! D20   D(4,3,34,35)          -13.1507         estimate D2E/DX2                !
 ! D21   D(3,4,5,2)             -0.9416         estimate D2E/DX2                !
 ! D22   D(3,4,5,6)            176.418          estimate D2E/DX2                !
 ! D23   D(7,4,5,2)           -178.3013         estimate D2E/DX2                !
 ! D24   D(7,4,5,6)             -0.9416         estimate D2E/DX2                !
 ! D25   D(3,4,7,8)           -173.8645         estimate D2E/DX2                !
 ! D26   D(3,4,7,10)             7.6627         estimate D2E/DX2                !
 ! D27   D(5,4,7,8)              2.1406         estimate D2E/DX2                !
 ! D28   D(5,4,7,10)          -176.3321         estimate D2E/DX2                !
 ! D29   D(2,5,6,8)            175.2946         estimate D2E/DX2                !
 ! D30   D(2,5,6,22)            -4.1187         estimate D2E/DX2                !
 ! D31   D(4,5,6,8)             -0.6894         estimate D2E/DX2                !
 ! D32   D(4,5,6,22)           179.8973         estimate D2E/DX2                !
 ! D33   D(5,6,8,7)              2.1905         estimate D2E/DX2                !
 ! D34   D(5,6,8,11)           164.8379         estimate D2E/DX2                !
 ! D35   D(22,6,8,7)          -178.3321         estimate D2E/DX2                !
 ! D36   D(22,6,8,11)          -15.6847         estimate D2E/DX2                !
 ! D37   D(5,6,22,14)          169.5103         estimate D2E/DX2                !
 ! D38   D(5,6,22,23)          -13.1508         estimate D2E/DX2                !
 ! D39   D(8,6,22,14)           -9.8105         estimate D2E/DX2                !
 ! D40   D(8,6,22,23)          167.5284         estimate D2E/DX2                !
 ! D41   D(4,7,8,6)             -2.705          estimate D2E/DX2                !
 ! D42   D(4,7,8,11)          -166.2199         estimate D2E/DX2                !
 ! D43   D(10,7,8,6)           175.9526         estimate D2E/DX2                !
 ! D44   D(10,7,8,11)           12.4376         estimate D2E/DX2                !
 ! D45   D(21,13,14,15)          2.8694         estimate D2E/DX2                !
 ! D46   D(21,13,14,22)       -179.7077         estimate D2E/DX2                !
 ! D47   D(24,13,14,15)       -176.4053         estimate D2E/DX2                !
 ! D48   D(24,13,14,22)          1.0176         estimate D2E/DX2                !
 ! D49   D(14,13,21,19)         -1.3469         estimate D2E/DX2                !
 ! D50   D(14,13,21,37)        179.2011         estimate D2E/DX2                !
 ! D51   D(24,13,21,19)        177.8842         estimate D2E/DX2                !
 ! D52   D(24,13,21,37)         -1.5678         estimate D2E/DX2                !
 ! D53   D(14,13,24,23)         -0.2477         estimate D2E/DX2                !
 ! D54   D(21,13,24,23)       -179.4957         estimate D2E/DX2                !
 ! D55   D(13,14,15,16)        175.0487         estimate D2E/DX2                !
 ! D56   D(13,14,15,17)         -2.3619         estimate D2E/DX2                !
 ! D57   D(22,14,15,16)         -1.7552         estimate D2E/DX2                !
 ! D58   D(22,14,15,17)       -179.1659         estimate D2E/DX2                !
 ! D59   D(13,14,22,6)         176.4409         estimate D2E/DX2                !
 ! D60   D(13,14,22,23)         -1.2224         estimate D2E/DX2                !
 ! D61   D(15,14,22,6)          -6.5436         estimate D2E/DX2                !
 ! D62   D(15,14,22,23)        175.7931         estimate D2E/DX2                !
 ! D63   D(14,15,17,18)        179.5512         estimate D2E/DX2                !
 ! D64   D(14,15,17,19)          0.3419         estimate D2E/DX2                !
 ! D65   D(16,15,17,18)          2.0957         estimate D2E/DX2                !
 ! D66   D(16,15,17,19)       -177.1136         estimate D2E/DX2                !
 ! D67   D(15,17,19,20)       -179.6657         estimate D2E/DX2                !
 ! D68   D(15,17,19,21)          1.2503         estimate D2E/DX2                !
 ! D69   D(18,17,19,20)          1.1253         estimate D2E/DX2                !
 ! D70   D(18,17,19,21)       -177.9586         estimate D2E/DX2                !
 ! D71   D(17,19,21,13)         -0.7102         estimate D2E/DX2                !
 ! D72   D(17,19,21,37)        178.7231         estimate D2E/DX2                !
 ! D73   D(20,19,21,13)       -179.79           estimate D2E/DX2                !
 ! D74   D(20,19,21,37)         -0.3567         estimate D2E/DX2                !
 ! D75   D(6,22,23,24)        -176.8808         estimate D2E/DX2                !
 ! D76   D(14,22,23,24)          0.9943         estimate D2E/DX2                !
 ! D77   D(22,23,24,13)         -0.4503         estimate D2E/DX2                !
 ! D78   D(33,25,26,27)          2.8695         estimate D2E/DX2                !
 ! D79   D(33,25,26,34)       -179.7077         estimate D2E/DX2                !
 ! D80   D(36,25,26,27)       -176.4053         estimate D2E/DX2                !
 ! D81   D(36,25,26,34)          1.0175         estimate D2E/DX2                !
 ! D82   D(26,25,33,31)         -1.3471         estimate D2E/DX2                !
 ! D83   D(26,25,33,38)        179.201          estimate D2E/DX2                !
 ! D84   D(36,25,33,31)        177.8842         estimate D2E/DX2                !
 ! D85   D(36,25,33,38)         -1.5678         estimate D2E/DX2                !
 ! D86   D(26,25,36,35)         -0.2476         estimate D2E/DX2                !
 ! D87   D(33,25,36,35)       -179.4958         estimate D2E/DX2                !
 ! D88   D(25,26,27,28)        175.0486         estimate D2E/DX2                !
 ! D89   D(25,26,27,29)         -2.362          estimate D2E/DX2                !
 ! D90   D(34,26,27,28)         -1.7551         estimate D2E/DX2                !
 ! D91   D(34,26,27,29)       -179.1658         estimate D2E/DX2                !
 ! D92   D(25,26,34,3)         176.441          estimate D2E/DX2                !
 ! D93   D(25,26,34,35)         -1.2222         estimate D2E/DX2                !
 ! D94   D(27,26,34,3)          -6.5437         estimate D2E/DX2                !
 ! D95   D(27,26,34,35)        175.7931         estimate D2E/DX2                !
 ! D96   D(26,27,29,30)        179.5512         estimate D2E/DX2                !
 ! D97   D(26,27,29,31)          0.3419         estimate D2E/DX2                !
 ! D98   D(28,27,29,30)          2.0957         estimate D2E/DX2                !
 ! D99   D(28,27,29,31)       -177.1135         estimate D2E/DX2                !
 ! D100  D(27,29,31,32)       -179.6657         estimate D2E/DX2                !
 ! D101  D(27,29,31,33)          1.2503         estimate D2E/DX2                !
 ! D102  D(30,29,31,32)          1.1254         estimate D2E/DX2                !
 ! D103  D(30,29,31,33)       -177.9586         estimate D2E/DX2                !
 ! D104  D(29,31,33,25)         -0.7101         estimate D2E/DX2                !
 ! D105  D(29,31,33,38)        178.7232         estimate D2E/DX2                !
 ! D106  D(32,31,33,25)       -179.7899         estimate D2E/DX2                !
 ! D107  D(32,31,33,38)         -0.3567         estimate D2E/DX2                !
 ! D108  D(3,34,35,36)        -176.8808         estimate D2E/DX2                !
 ! D109  D(26,34,35,36)          0.9942         estimate D2E/DX2                !
 ! D110  D(34,35,36,25)         -0.4503         estimate D2E/DX2                !
 --------------------------------------------------------------------------------
 Trust Radius=3.00D-01 FncErr=1.00D-07 GrdErr=1.00D-06
 Number of steps in this run=    228 maximum allowed number of steps=    228.
 GradGradGradGradGradGradGradGradGradGradGradGradGradGradGradGradGradGrad

                          Input orientation:                          
 ---------------------------------------------------------------------
 Center     Atomic      Atomic             Coordinates (Angstroms)
 Number     Number       Type             X           Y           Z
 ---------------------------------------------------------------------
      1          7           0       -1.479782    1.521774   -0.071204
      2          6           0       -0.098880    1.805416   -0.133596
      3          6           0       -1.771809    0.144306   -0.112452
      4          6           0       -0.511930   -0.488655   -0.153969
      5          6           0        0.511930    0.488655   -0.153969
      6          6           0        1.771809   -0.144306   -0.112451
      7          6           0        0.098879   -1.805415   -0.133595
      8          7           0        1.479782   -1.521774   -0.071201
      9          8           0        0.364662    2.951275   -0.183942
     10          8           0       -0.364662   -2.951274   -0.183942
     11          1           0        2.150628   -2.251713   -0.253704
     12          1           0       -2.150629    2.251714   -0.253700
     13          6           0        5.427557    0.638215   -0.028639
     14          6           0        4.330281   -0.288358    0.143291
     15          6           0        4.613908   -1.615184    0.555940
     16          1           0        3.811446   -2.312160    0.771443
     17          6           0        5.923853   -2.022198    0.740726
     18          1           0        6.129972   -3.038520    1.064008
     19          6           0        7.000746   -1.119221    0.527960
     20          1           0        8.021318   -1.464625    0.674491
     21          6           0        6.767895    0.187321    0.158335
     22          6           0        3.083399    0.370033   -0.097647
     23         16           0        3.453284    2.046829   -0.466435
     24          7           0        5.119173    1.905233   -0.347848
     25          6           0       -5.427556   -0.638216   -0.028637
     26          6           0       -4.330281    0.288358    0.143289
     27          6           0       -4.613909    1.615185    0.555936
     28          1           0       -3.811446    2.312162    0.771437
     29          6           0       -5.923854    2.022198    0.740722
     30          1           0       -6.129973    3.038521    1.064003
     31          6           0       -7.000747    1.119221    0.527959
     32          1           0       -8.021318    1.464625    0.674490
     33          6           0       -6.767895   -0.187322    0.158336
     34          6           0       -3.083399   -0.370033   -0.097647
     35         16           0       -3.453284   -2.046830   -0.466432
     36          7           0       -5.119172   -1.905234   -0.347844
     37          1           0        7.578625    0.894565    0.011896
     38          1           0       -7.578625   -0.894566    0.011899
 ---------------------------------------------------------------------
                    Distance matrix (angstroms):
                    1          2          3          4          5
     1  N    0.000000
     2  C    1.411112   0.000000
     3  C    1.408687   2.357631   0.000000
     4  C    2.232804   2.331049   1.410553   0.000000
     5  C    2.245240   1.451676   2.309927   1.415424   0.000000
     6  C    3.653816   2.702099   3.555352   2.309927   1.410553
     7  C    3.683239   3.616242   2.702098   1.451675   2.331048
     8  N    4.245257   3.683240   3.653816   2.245240   2.232804
     9  O    2.336270   1.237093   3.528271   3.549990   2.467202
    10  O    4.611330   4.764376   3.401145   2.467201   3.549989
    11  H    5.239503   4.640583   4.598518   3.194923   3.194510
    12  H    1.008044   2.103160   2.145839   3.194511   3.194925
    13  C    6.963750   5.649326   7.216775   6.046739   4.919498
    14  C    6.089287   4.906936   6.122753   4.855460   3.907930
    15  C    6.882360   5.863986   6.657322   5.295966   4.664368
    16  H    6.588338   5.750146   6.163459   4.782587   4.425806
    17  C    8.248199   7.189463   8.040203   6.676192   6.032725
    18  H    8.943900   7.981013   8.599569   7.218043   6.744392
    19  C    8.902427   7.706870   8.886189   7.569871   6.719749
    20  H    9.987269   8.791120   9.955565   8.628742   7.803368
    21  C    8.358088   7.060882   8.544104   7.317809   6.270999
    22  C    4.706360   3.491206   4.860475   3.696878   2.574820
    23  S    4.976649   3.575882   5.571938   4.716910   3.343218
    24  N    6.615873   5.223404   7.116313   6.121896   4.823999
    25  C    4.500254   5.863202   3.739499   4.919497   6.046738
    26  C    3.113305   4.503652   2.575254   3.907930   4.855460
    27  C    3.197621   4.571338   3.269214   4.664369   5.295966
    28  H    2.602194   3.854740   3.104993   4.425806   4.782587
    29  C    4.545264   5.894213   4.636147   6.032725   6.676192
    30  H    5.021304   6.271274   5.362287   6.744393   7.218043
    31  C    5.567953   6.967373   5.357460   6.719750   7.569872
    32  H    6.584149   7.970832   6.435750   7.803368   8.628742
    33  C    5.562179   6.966491   5.014397   6.270999   7.317809
    34  C    2.480165   3.693403   1.408912   2.574820   3.696878
    35  S    4.097054   5.118848   2.784553   3.343218   4.716910
    36  N    5.006603   6.246452   3.932030   4.823999   6.121895
    37  H    9.080475   7.732716   9.381309   8.209622   7.080286
    38  H    6.560601   7.953468   5.900325   7.080286   8.209622
                    6          7          8          9         10
     6  C    0.000000
     7  C    2.357631   0.000000
     8  N    1.408687   1.411112   0.000000
     9  O    3.401146   4.764376   4.611331   0.000000
    10  O    3.528270   1.237093   2.336269   5.947436   0.000000
    11  H    2.145838   2.103160   1.008044   5.501420   2.611692
    12  H    4.598520   4.640583   5.239504   2.611693   5.501421
    13  C    3.739500   5.863203   4.500255   5.568417   6.816036
    14  C    2.575254   4.503653   3.113305   5.131124   5.407466
    15  C    3.269213   4.571338   3.197621   6.281406   5.207564
    16  H    3.104993   3.854742   2.602194   6.363712   4.331409
    17  C    4.636147   5.894214   4.545263   7.516319   6.423676
    18  H    5.362286   6.271274   5.021303   8.406772   6.614020
    19  C    5.357459   6.967373   5.567952   7.817503   7.623153
    20  H    6.435750   7.970833   6.584149   8.880398   8.559889
    21  C    5.014397   6.966491   5.562179   6.982692   7.800083
    22  C    1.408912   3.693403   2.480165   3.749905   4.788283
    23  S    2.784553   5.118847   4.097054   3.230698   6.295836
    24  N    3.932031   6.246452   5.006603   4.870980   7.327003
    25  C    7.216774   5.649323   6.963749   6.816037   5.568416
    26  C    6.122753   4.906935   6.089287   5.407467   5.131124
    27  C    6.657323   5.863986   6.882360   5.207564   6.281406
    28  H    6.163459   5.750145   6.588338   4.331408   6.363712
    29  C    8.040204   7.189462   8.248199   6.423677   7.516318
    30  H    8.599569   7.981012   8.943900   6.614020   8.406772
    31  C    8.886190   7.706870   8.902428   7.623154   7.817503
    32  H    9.955565   8.791118   9.987269   8.559889   8.880397
    33  C    8.544104   7.060881   8.358087   7.800084   6.982691
    34  C    4.860475   3.491204   4.706360   4.788283   3.749904
    35  S    5.571938   3.575881   4.976649   6.295837   3.230697
    36  N    7.116312   5.223401   6.615872   7.327003   4.870978
    37  H    5.900324   7.953468   6.560601   7.503977   8.827493
    38  H    9.381310   7.732715   9.080475   8.827494   7.503977
                   11         12         13         14         15
    11  H    0.000000
    12  H    6.227493   0.000000
    13  C    4.374997   7.751318   0.000000
    14  C    2.960280   6.972214   1.446414   0.000000
    15  C    2.669914   7.833733   2.466083   1.418165   0.000000
    16  H    1.952664   7.578008   3.457840   2.181637   1.084510
    17  C    3.908810   9.189802   2.813544   2.429527   1.384111
    18  H    4.265045   9.914196   3.899442   3.413209   2.140670
    19  C    5.041546   9.783755   2.423491   2.823063   2.437982
    20  H    5.995503  10.869279   3.412319   3.910183   3.412794
    21  C    5.238112   9.163600   1.426454   2.483638   2.836684
    22  C    2.787107   5.564182   2.360458   1.430470   2.590506
    23  S    4.496624   5.611691   2.464470   2.567876   3.975253
    24  N    5.108945   7.278663   1.342509   2.382312   3.669531
    25  C    7.751316   4.374997  10.929902   9.765620  10.105800
    26  C    6.972212   2.960279   9.765621   8.679743   9.153812
    27  C    7.833733   2.669912  10.105802   9.153813   9.776906
    28  H    7.578007   1.952658   9.423449   8.570005   9.298230
    29  C    9.189802   3.908808  11.461320  10.528194  11.149400
    30  H    9.914196   4.265042  11.854612  11.015115  11.719474
    31  C    9.783755   5.041545  12.450057  11.424598  11.932224
    32  H   10.869278   5.995501  13.492575  12.486678  13.005699
    33  C    9.163599   5.238112  12.224791  11.098646  11.477906
    34  C    5.564181   2.787108   8.570747   7.418044   7.824712
    35  S    5.611690   4.496626   9.288190   8.002991   8.143166
    36  N    7.278661   5.108946  10.853779   9.599357   9.779254
    37  H    6.279551   9.827043   2.166668   3.459525   3.922292
    38  H    9.827042   6.279551  13.096253  11.925049  12.225920
                   16         17         18         19         20
    16  H    0.000000
    17  C    2.132436   0.000000
    18  H    2.447193   1.086235   0.000000
    19  C    3.413799   1.421385   2.174696   0.000000
    20  H    4.295432   2.171321   2.491196   1.087356   0.000000
    21  C    3.919681   2.435890   3.410754   1.377641   2.136916
    22  C    2.911963   3.807075   4.716915   4.237319   5.324022
    23  S    4.545482   4.911001   5.947074   4.857693   5.873581
    24  N    4.555147   4.154181   5.239823   3.668062   4.563285
    25  C    9.423448  11.461318  11.854610  12.450054  13.492574
    26  C    8.570005  10.528194  11.015114  11.424597  12.486678
    27  C    9.298230  11.149400  11.719475  11.932224  13.005701
    28  H    8.915876  10.656625  11.293679  11.346240  12.421265
    29  C   10.656626  12.518998  13.077083  13.302596  14.374635
    30  H   11.293679  13.077083  13.683445  13.783684  14.855608
    31  C   11.346241  13.302596  13.783684  14.179296  15.243365
    32  H   12.421264  14.374634  14.855607  15.243364  16.307872
    33  C   10.808020  12.836916  13.240262  13.805091  14.853240
    34  C    7.215682   9.195820   9.662115  10.131271  11.185217
    35  S    7.374214   9.454551   9.755229  10.542107  11.545872
    36  N    9.009680  11.097165  11.393898  12.176915  13.187562
    37  H    5.005161   3.431759   4.321423   2.157684   2.490138
    38  H   11.503052  13.569070  13.915068  14.590231  15.624411
                   21         22         23         24         25
    21  C    0.000000
    22  C    3.697894   0.000000
    23  S    3.851591   1.756264   0.000000
    24  N    2.434282   2.561994   1.676096   0.000000
    25  C   12.224790   8.570746   9.288189  10.853779   0.000000
    26  C   11.098646   7.418044   8.002991   9.599358   1.446413
    27  C   11.477907   7.824712   8.143167   9.779256   2.466083
    28  H   10.808020   7.215682   7.374214   9.009681   3.457840
    29  C   12.836917   9.195821   9.454552  11.097167   2.813544
    30  H   13.240263   9.662116   9.755230  11.393900   3.899442
    31  C   13.805092  10.131272  10.542108  12.176917   2.423492
    32  H   14.853240  11.185216  11.545872  13.187563   3.412320
    33  C   13.540974   9.870368  10.481139  12.080455   1.426455
    34  C    9.870368   6.211046   6.978929   8.515963   2.360457
    35  S   10.481139   6.978929   8.028619   9.440333   2.464469
    36  N   12.080454   8.515962   9.440332  10.924439   1.342508
    37  H    1.085782   4.527051   4.309867   2.683239  13.096252
    38  H   14.388001  10.737317  11.427319  13.007781   2.166669
                   26         27         28         29         30
    26  C    0.000000
    27  C    1.418165   0.000000
    28  H    2.181638   1.084511   0.000000
    29  C    2.429527   1.384110   2.132438   0.000000
    30  H    3.413210   2.140670   2.447194   1.086236   0.000000
    31  C    2.823064   2.437982   3.413800   1.421385   2.174696
    32  H    3.910183   3.412793   4.295432   2.171320   2.491195
    33  C    2.483638   2.836683   3.919682   2.435889   3.410754
    34  C    1.430470   2.590506   2.911963   3.807075   4.716915
    35  S    2.567876   3.975254   4.545482   4.911000   5.947074
    36  N    2.382311   3.669531   4.555147   4.154180   5.239823
    37  H   11.925049  12.225922  11.503052  13.569071  13.915069
    38  H    3.459525   3.922291   5.005161   3.431758   4.321422
                   31         32         33         34         35
    31  C    0.000000
    32  H    1.087355   0.000000
    33  C    1.377641   2.136917   0.000000
    34  C    4.237319   5.324022   3.697894   0.000000
    35  S    4.857693   5.873581   3.851591   1.756265   0.000000
    36  N    3.668063   4.563285   2.434282   2.561994   1.676095
    37  H   14.590232  15.624411  14.388001  10.737316  11.427319
    38  H    2.157684   2.490138   1.085781   4.527051   4.309867
                   36         37         38
    36  N    0.000000
    37  H   13.007780   0.000000
    38  H    2.683239  15.262477   0.000000
 Stoichiometry    C20H10N4O2S2(1-,2)
 Framework group  C1[X(C20H10N4O2S2)]
 Deg. of freedom   108
 Full point group                 C1      NOp   1
 Largest Abelian subgroup         C1      NOp   1
 Largest concise Abelian subgroup C1      NOp   1
                         Standard orientation:                         
 ---------------------------------------------------------------------
 Center     Atomic      Atomic             Coordinates (Angstroms)
 Number     Number       Type             X           Y           Z
 ---------------------------------------------------------------------
      1          7           0       -1.479782    1.521774   -0.071204
      2          6           0       -0.098880    1.805416   -0.133596
      3          6           0       -1.771809    0.144306   -0.112452
      4          6           0       -0.511930   -0.488655   -0.153969
      5          6           0        0.511930    0.488655   -0.153969
      6          6           0        1.771809   -0.144306   -0.112451
      7          6           0        0.098879   -1.805415   -0.133595
      8          7           0        1.479782   -1.521774   -0.071201
      9          8           0        0.364662    2.951275   -0.183942
     10          8           0       -0.364662   -2.951274   -0.183942
     11          1           0        2.150628   -2.251713   -0.253704
     12          1           0       -2.150629    2.251714   -0.253700
     13          6           0        5.427557    0.638215   -0.028639
     14          6           0        4.330281   -0.288358    0.143291
     15          6           0        4.613908   -1.615184    0.555940
     16          1           0        3.811446   -2.312160    0.771443
     17          6           0        5.923853   -2.022198    0.740726
     18          1           0        6.129972   -3.038520    1.064008
     19          6           0        7.000746   -1.119221    0.527960
     20          1           0        8.021318   -1.464625    0.674491
     21          6           0        6.767895    0.187321    0.158335
     22          6           0        3.083399    0.370033   -0.097647
     23         16           0        3.453284    2.046829   -0.466435
     24          7           0        5.119173    1.905233   -0.347848
     25          6           0       -5.427556   -0.638216   -0.028637
     26          6           0       -4.330281    0.288358    0.143289
     27          6           0       -4.613909    1.615185    0.555936
     28          1           0       -3.811446    2.312162    0.771437
     29          6           0       -5.923854    2.022198    0.740722
     30          1           0       -6.129973    3.038521    1.064003
     31          6           0       -7.000747    1.119221    0.527959
     32          1           0       -8.021318    1.464625    0.674490
     33          6           0       -6.767895   -0.187322    0.158336
     34          6           0       -3.083399   -0.370033   -0.097647
     35         16           0       -3.453284   -2.046830   -0.466432
     36          7           0       -5.119172   -1.905234   -0.347844
     37          1           0        7.578625    0.894565    0.011896
     38          1           0       -7.578625   -0.894566    0.011899
 ---------------------------------------------------------------------
 Rotational constants (GHZ):      0.4586938      0.0714676      0.0626448
 Standard basis: 6-31+G(d,p) (6D, 7F)
 There are   590 symmetry adapted basis functions of A   symmetry.
 Integral buffers will be    262144 words long.
 Raffenetti 2 integral format.
 Two-electron integral symmetry is turned on.
   590 basis functions,  1014 primitive gaussians,   590 cartesian basis functions
   104 alpha electrons      103 beta electrons
       nuclear repulsion energy      2630.3701381751 Hartrees.
 NAtoms=   38 NActive=   38 NUniq=   38 SFac= 1.00D+00 NAtFMM=   50 NAOKFM=F Big=F
 One-electron integrals computed using PRISM.
 NBasis=   590 RedAO= T  NBF=   590
 NBsUse=   583 1.00D-06 NBFU=   583
 Harris functional with IExCor=  402 diagonalized for initial guess.
 ExpMin= 4.05D-02 ExpMax= 2.19D+04 ExpMxC= 3.30D+03 IAcc=2 IRadAn=         0 AccDes= 0.00D+00
 HarFok:  IExCor=  402 AccDes= 0.00D+00 IRadAn=         0 IDoV= 1
 ScaDFX=  1.000000  1.000000  1.000000  1.000000
 FoFCou: FMM=F IPFlag=           0 FMFlag=      100000 FMFlg1=           0
         NFxFlg=           0 DoJE=T BraDBF=F KetDBF=T FulRan=T
         Omega=  0.000000  0.000000  1.000000  0.000000  0.000000 ICntrl=     500 IOpCl=  0
         NMat0=    1 NMatS0=    1 NMatT0=    0 NMatD0=    1 NMtDS0=    0 NMtDT0=    0
         I1Cent=           4 NGrid=           0.
 Petite list used in FoFCou.
 Initial guess orbital symmetries:
 Alpha Orbitals:
       Occupied  (A) (A) (A) (A) (A) (A) (A) (A) (A) (A) (A) (A)
                 (A) (A) (A) (A) (A) (A) (A) (A) (A) (A) (A) (A)
                 (A) (A) (A) (A) (A) (A) (A) (A) (A) (A) (A) (A)
                 (A) (A) (A) (A) (A) (A) (A) (A) (A) (A) (A) (A)
                 (A) (A) (A) (A) (A) (A) (A) (A) (A) (A) (A) (A)
                 (A) (A) (A) (A) (A) (A) (A) (A) (A) (A) (A) (A)
                 (A) (A) (A) (A) (A) (A) (A) (A) (A) (A) (A) (A)
                 (A) (A) (A) (A) (A) (A) (A) (A) (A) (A) (A) (A)
                 (A) (A) (A) (A) (A) (A) (A) (A)
       Virtual   (A) (A) (A) (A) (A) (A) (A) (A) (A) (A) (A) (A)
                 (A) (A) (A) (A) (A) (A) (A) (A) (A) (A) (A) (A)
                 (A) (A) (A) (A) (A) (A) (A) (A) (A) (A) (A) (A)
                 (A) (A) (A) (A) (A) (A) (A) (A) (A) (A) (A) (A)
                 (A) (A) (A) (A) (A) (A) (A) (A) (A) (A) (A) (A)
                 (A) (A) (A) (A) (A) (A) (A) (A) (A) (A) (A) (A)
                 (A) (A) (A) (A) (A) (A) (A) (A) (A) (A) (A) (A)
                 (A) (A) (A) (A) (A) (A) (A) (A) (A) (A) (A) (A)
                 (A) (A) (A) (A) (A) (A) (A) (A) (A) (A) (A) (A)
                 (A) (A) (A) (A) (A) (A) (A) (A) (A) (A) (A) (A)
                 (A) (A) (A) (A) (A) (A) (A) (A) (A) (A) (A) (A)
                 (A) (A) (A) (A) (A) (A) (A) (A) (A) (A) (A) (A)
                 (A) (A) (A) (A) (A) (A) (A) (A) (A) (A) (A) (A)
                 (A) (A) (A) (A) (A) (A) (A) (A) (A) (A) (A) (A)
                 (A) (A) (A) (A) (A) (A) (A) (A) (A) (A) (A) (A)
                 (A) (A) (A) (A) (A) (A) (A) (A) (A) (A) (A) (A)
                 (A) (A) (A) (A) (A) (A) (A) (A) (A) (A) (A) (A)
                 (A) (A) (A) (A) (A) (A) (A) (A) (A) (A) (A) (A)
                 (A) (A) (A) (A) (A) (A) (A) (A) (A) (A) (A) (A)
                 (A) (A) (A) (A) (A) (A) (A) (A) (A) (A) (A) (A)
                 (A) (A) (A) (A) (A) (A) (A) (A) (A) (A) (A) (A)
                 (A) (A) (A) (A) (A) (A) (A) (A) (A) (A) (A) (A)
                 (A) (A) (A) (A) (A) (A) (A) (A) (A) (A) (A) (A)
                 (A) (A) (A) (A) (A) (A) (A) (A) (A) (A) (A) (A)
                 (A) (A) (A) (A) (A) (A) (A) (A) (A) (A) (A) (A)
                 (A) (A) (A) (A) (A) (A) (A) (A) (A) (A) (A) (A)
                 (A) (A) (A) (A) (A) (A) (A) (A) (A) (A) (A) (A)
                 (A) (A) (A) (A) (A) (A) (A) (A) (A) (A) (A) (A)
                 (A) (A) (A) (A) (A) (A) (A) (A) (A) (A) (A) (A)
                 (A) (A) (A) (A) (A) (A) (A) (A) (A) (A) (A) (A)
                 (A) (A) (A) (A) (A) (A) (A) (A) (A) (A) (A) (A)
                 (A) (A) (A) (A) (A) (A) (A) (A) (A) (A) (A) (A)
                 (A) (A) (A) (A) (A) (A) (A) (A) (A) (A) (A) (A)
                 (A) (A) (A) (A) (A) (A) (A) (A) (A) (A) (A) (A)
                 (A) (A) (A) (A) (A) (A) (A) (A) (A) (A) (A) (A)
                 (A) (A) (A) (A) (A) (A) (A) (A) (A) (A) (A) (A)
                 (A) (A) (A) (A) (A) (A) (A) (A) (A) (A) (A) (A)
                 (A) (A) (A) (A) (A) (A) (A) (A) (A) (A) (A) (A)
                 (A) (A) (A) (A) (A) (A) (A) (A) (A) (A) (A) (A)
                 (A) (A) (A) (A) (A) (A) (A) (A) (A) (A) (A)
 Beta  Orbitals:
       Occupied  (A) (A) (A) (A) (A) (A) (A) (A) (A) (A) (A) (A)
                 (A) (A) (A) (A) (A) (A) (A) (A) (A) (A) (A) (A)
                 (A) (A) (A) (A) (A) (A) (A) (A) (A) (A) (A) (A)
                 (A) (A) (A) (A) (A) (A) (A) (A) (A) (A) (A) (A)
                 (A) (A) (A) (A) (A) (A) (A) (A) (A) (A) (A) (A)
                 (A) (A) (A) (A) (A) (A) (A) (A) (A) (A) (A) (A)
                 (A) (A) (A) (A) (A) (A) (A) (A) (A) (A) (A) (A)
                 (A) (A) (A) (A) (A) (A) (A) (A) (A) (A) (A) (A)
                 (A) (A) (A) (A) (A) (A) (A)
       Virtual   (A) (A) (A) (A) (A) (A) (A) (A) (A) (A) (A) (A)
                 (A) (A) (A) (A) (A) (A) (A) (A) (A) (A) (A) (A)
                 (A) (A) (A) (A) (A) (A) (A) (A) (A) (A) (A) (A)
                 (A) (A) (A) (A) (A) (A) (A) (A) (A) (A) (A) (A)
                 (A) (A) (A) (A) (A) (A) (A) (A) (A) (A) (A) (A)
                 (A) (A) (A) (A) (A) (A) (A) (A) (A) (A) (A) (A)
                 (A) (A) (A) (A) (A) (A) (A) (A) (A) (A) (A) (A)
                 (A) (A) (A) (A) (A) (A) (A) (A) (A) (A) (A) (A)
                 (A) (A) (A) (A) (A) (A) (A) (A) (A) (A) (A) (A)
                 (A) (A) (A) (A) (A) (A) (A) (A) (A) (A) (A) (A)
                 (A) (A) (A) (A) (A) (A) (A) (A) (A) (A) (A) (A)
                 (A) (A) (A) (A) (A) (A) (A) (A) (A) (A) (A) (A)
                 (A) (A) (A) (A) (A) (A) (A) (A) (A) (A) (A) (A)
                 (A) (A) (A) (A) (A) (A) (A) (A) (A) (A) (A) (A)
                 (A) (A) (A) (A) (A) (A) (A) (A) (A) (A) (A) (A)
                 (A) (A) (A) (A) (A) (A) (A) (A) (A) (A) (A) (A)
                 (A) (A) (A) (A) (A) (A) (A) (A) (A) (A) (A) (A)
                 (A) (A) (A) (A) (A) (A) (A) (A) (A) (A) (A) (A)
                 (A) (A) (A) (A) (A) (A) (A) (A) (A) (A) (A) (A)
                 (A) (A) (A) (A) (A) (A) (A) (A) (A) (A) (A) (A)
                 (A) (A) (A) (A) (A) (A) (A) (A) (A) (A) (A) (A)
                 (A) (A) (A) (A) (A) (A) (A) (A) (A) (A) (A) (A)
                 (A) (A) (A) (A) (A) (A) (A) (A) (A) (A) (A) (A)
                 (A) (A) (A) (A) (A) (A) (A) (A) (A) (A) (A) (A)
                 (A) (A) (A) (A) (A) (A) (A) (A) (A) (A) (A) (A)
                 (A) (A) (A) (A) (A) (A) (A) (A) (A) (A) (A) (A)
                 (A) (A) (A) (A) (A) (A) (A) (A) (A) (A) (A) (A)
                 (A) (A) (A) (A) (A) (A) (A) (A) (A) (A) (A) (A)
                 (A) (A) (A) (A) (A) (A) (A) (A) (A) (A) (A) (A)
                 (A) (A) (A) (A) (A) (A) (A) (A) (A) (A) (A) (A)
                 (A) (A) (A) (A) (A) (A) (A) (A) (A) (A) (A) (A)
                 (A) (A) (A) (A) (A) (A) (A) (A) (A) (A) (A) (A)
                 (A) (A) (A) (A) (A) (A) (A) (A) (A) (A) (A) (A)
                 (A) (A) (A) (A) (A) (A) (A) (A) (A) (A) (A) (A)
                 (A) (A) (A) (A) (A) (A) (A) (A) (A) (A) (A) (A)
                 (A) (A) (A) (A) (A) (A) (A) (A) (A) (A) (A) (A)
                 (A) (A) (A) (A) (A) (A) (A) (A) (A) (A) (A) (A)
                 (A) (A) (A) (A) (A) (A) (A) (A) (A) (A) (A) (A)
                 (A) (A) (A) (A) (A) (A) (A) (A) (A) (A) (A) (A)
                 (A) (A) (A) (A) (A) (A) (A) (A) (A) (A) (A) (A)
 The electronic state of the initial guess is 2-A.
 Initial guess <Sx>= 0.0000 <Sy>= 0.0000 <Sz>= 0.5000 <S**2>= 0.7500 S= 0.5000
 Requested convergence on RMS density matrix=1.00D-08 within 128 cycles.
 Requested convergence on MAX density matrix=1.00D-06.
 Requested convergence on             energy=1.00D-06.
 No special actions if energy rises.
 DSYEVD returned Info=         875 IAlg= 4 N=   583 NDim=   583 NE2=       55183 trying DSYEV.
 DSYEVD returned Info=      256375 IAlg= 4 N=   583 NDim=   583 NE2=       55183 trying DSYEV.
 Restarting incremental Fock formation.
 SCF Done:  E(UB3LYP) =  -1934.12175330     A.U. after   31 cycles
             Convg  =    0.7756D-08             -V/T =  2.0070
 <Sx>= 0.0000 <Sy>= 0.0000 <Sz>= 0.5000 <S**2>= 0.7966 S= 0.5230
 <L.S>= 0.000000000000E+00
 Annihilation of the first spin contaminant:
 S**2 before annihilation     0.7966,   after     0.7513

 **********************************************************************

            Population analysis using the SCF density.

 **********************************************************************

 Orbital symmetries:
 Alpha Orbitals:
       Occupied  (A) (A) (A) (A) (A) (A) (A) (A) (A) (A) (A) (A)
                 (A) (A) (A) (A) (A) (A) (A) (A) (A) (A) (A) (A)
                 (A) (A) (A) (A) (A) (A) (A) (A) (A) (A) (A) (A)
                 (A) (A) (A) (A) (A) (A) (A) (A) (A) (A) (A) (A)
                 (A) (A) (A) (A) (A) (A) (A) (A) (A) (A) (A) (A)
                 (A) (A) (A) (A) (A) (A) (A) (A) (A) (A) (A) (A)
                 (A) (A) (A) (A) (A) (A) (A) (A) (A) (A) (A) (A)
                 (A) (A) (A) (A) (A) (A) (A) (A) (A) (A) (A) (A)
                 (A) (A) (A) (A) (A) (A) (A) (A)
       Virtual   (A) (A) (A) (A) (A) (A) (A) (A) (A) (A) (A) (A)
                 (A) (A) (A) (A) (A) (A) (A) (A) (A) (A) (A) (A)
                 (A) (A) (A) (A) (A) (A) (A) (A) (A) (A) (A) (A)
                 (A) (A) (A) (A) (A) (A) (A) (A) (A) (A) (A) (A)
                 (A) (A) (A) (A) (A) (A) (A) (A) (A) (A) (A) (A)
                 (A) (A) (A) (A) (A) (A) (A) (A) (A) (A) (A) (A)
                 (A) (A) (A) (A) (A) (A) (A) (A) (A) (A) (A) (A)
                 (A) (A) (A) (A) (A) (A) (A) (A) (A) (A) (A) (A)
                 (A) (A) (A) (A) (A) (A) (A) (A) (A) (A) (A) (A)
                 (A) (A) (A) (A) (A) (A) (A) (A) (A) (A) (A) (A)
                 (A) (A) (A) (A) (A) (A) (A) (A) (A) (A) (A) (A)
                 (A) (A) (A) (A) (A) (A) (A) (A) (A) (A) (A) (A)
                 (A) (A) (A) (A) (A) (A) (A) (A) (A) (A) (A) (A)
                 (A) (A) (A) (A) (A) (A) (A) (A) (A) (A) (A) (A)
                 (A) (A) (A) (A) (A) (A) (A) (A) (A) (A) (A) (A)
                 (A) (A) (A) (A) (A) (A) (A) (A) (A) (A) (A) (A)
                 (A) (A) (A) (A) (A) (A) (A) (A) (A) (A) (A) (A)
                 (A) (A) (A) (A) (A) (A) (A) (A) (A) (A) (A) (A)
                 (A) (A) (A) (A) (A) (A) (A) (A) (A) (A) (A) (A)
                 (A) (A) (A) (A) (A) (A) (A) (A) (A) (A) (A) (A)
                 (A) (A) (A) (A) (A) (A) (A) (A) (A) (A) (A) (A)
                 (A) (A) (A) (A) (A) (A) (A) (A) (A) (A) (A) (A)
                 (A) (A) (A) (A) (A) (A) (A) (A) (A) (A) (A) (A)
                 (A) (A) (A) (A) (A) (A) (A) (A) (A) (A) (A) (A)
                 (A) (A) (A) (A) (A) (A) (A) (A) (A) (A) (A) (A)
                 (A) (A) (A) (A) (A) (A) (A) (A) (A) (A) (A) (A)
                 (A) (A) (A) (A) (A) (A) (A) (A) (A) (A) (A) (A)
                 (A) (A) (A) (A) (A) (A) (A) (A) (A) (A) (A) (A)
                 (A) (A) (A) (A) (A) (A) (A) (A) (A) (A) (A) (A)
                 (A) (A) (A) (A) (A) (A) (A) (A) (A) (A) (A) (A)
                 (A) (A) (A) (A) (A) (A) (A) (A) (A) (A) (A) (A)
                 (A) (A) (A) (A) (A) (A) (A) (A) (A) (A) (A) (A)
                 (A) (A) (A) (A) (A) (A) (A) (A) (A) (A) (A) (A)
                 (A) (A) (A) (A) (A) (A) (A) (A) (A) (A) (A) (A)
                 (A) (A) (A) (A) (A) (A) (A) (A) (A) (A) (A) (A)
                 (A) (A) (A) (A) (A) (A) (A) (A) (A) (A) (A) (A)
                 (A) (A) (A) (A) (A) (A) (A) (A) (A) (A) (A) (A)
                 (A) (A) (A) (A) (A) (A) (A) (A) (A) (A) (A) (A)
                 (A) (A) (A) (A) (A) (A) (A) (A) (A) (A) (A) (A)
                 (A) (A) (A) (A) (A) (A) (A) (A) (A) (A) (A)
 Beta  Orbitals:
       Occupied  (A) (A) (A) (A) (A) (A) (A) (A) (A) (A) (A) (A)
                 (A) (A) (A) (A) (A) (A) (A) (A) (A) (A) (A) (A)
                 (A) (A) (A) (A) (A) (A) (A) (A) (A) (A) (A) (A)
                 (A) (A) (A) (A) (A) (A) (A) (A) (A) (A) (A) (A)
                 (A) (A) (A) (A) (A) (A) (A) (A) (A) (A) (A) (A)
                 (A) (A) (A) (A) (A) (A) (A) (A) (A) (A) (A) (A)
                 (A) (A) (A) (A) (A) (A) (A) (A) (A) (A) (A) (A)
                 (A) (A) (A) (A) (A) (A) (A) (A) (A) (A) (A) (A)
                 (A) (A) (A) (A) (A) (A) (A)
       Virtual   (A) (A) (A) (A) (A) (A) (A) (A) (A) (A) (A) (A)
                 (A) (A) (A) (A) (A) (A) (A) (A) (A) (A) (A) (A)
                 (A) (A) (A) (A) (A) (A) (A) (A) (A) (A) (A) (A)
                 (A) (A) (A) (A) (A) (A) (A) (A) (A) (A) (A) (A)
                 (A) (A) (A) (A) (A) (A) (A) (A) (A) (A) (A) (A)
                 (A) (A) (A) (A) (A) (A) (A) (A) (A) (A) (A) (A)
                 (A) (A) (A) (A) (A) (A) (A) (A) (A) (A) (A) (A)
                 (A) (A) (A) (A) (A) (A) (A) (A) (A) (A) (A) (A)
                 (A) (A) (A) (A) (A) (A) (A) (A) (A) (A) (A) (A)
                 (A) (A) (A) (A) (A) (A) (A) (A) (A) (A) (A) (A)
                 (A) (A) (A) (A) (A) (A) (A) (A) (A) (A) (A) (A)
                 (A) (A) (A) (A) (A) (A) (A) (A) (A) (A) (A) (A)
                 (A) (A) (A) (A) (A) (A) (A) (A) (A) (A) (A) (A)
                 (A) (A) (A) (A) (A) (A) (A) (A) (A) (A) (A) (A)
                 (A) (A) (A) (A) (A) (A) (A) (A) (A) (A) (A) (A)
                 (A) (A) (A) (A) (A) (A) (A) (A) (A) (A) (A) (A)
                 (A) (A) (A) (A) (A) (A) (A) (A) (A) (A) (A) (A)
                 (A) (A) (A) (A) (A) (A) (A) (A) (A) (A) (A) (A)
                 (A) (A) (A) (A) (A) (A) (A) (A) (A) (A) (A) (A)
                 (A) (A) (A) (A) (A) (A) (A) (A) (A) (A) (A) (A)
                 (A) (A) (A) (A) (A) (A) (A) (A) (A) (A) (A) (A)
                 (A) (A) (A) (A) (A) (A) (A) (A) (A) (A) (A) (A)
                 (A) (A) (A) (A) (A) (A) (A) (A) (A) (A) (A) (A)
                 (A) (A) (A) (A) (A) (A) (A) (A) (A) (A) (A) (A)
                 (A) (A) (A) (A) (A) (A) (A) (A) (A) (A) (A) (A)
                 (A) (A) (A) (A) (A) (A) (A) (A) (A) (A) (A) (A)
                 (A) (A) (A) (A) (A) (A) (A) (A) (A) (A) (A) (A)
                 (A) (A) (A) (A) (A) (A) (A) (A) (A) (A) (A) (A)
                 (A) (A) (A) (A) (A) (A) (A) (A) (A) (A) (A) (A)
                 (A) (A) (A) (A) (A) (A) (A) (A) (A) (A) (A) (A)
                 (A) (A) (A) (A) (A) (A) (A) (A) (A) (A) (A) (A)
                 (A) (A) (A) (A) (A) (A) (A) (A) (A) (A) (A) (A)
                 (A) (A) (A) (A) (A) (A) (A) (A) (A) (A) (A) (A)
                 (A) (A) (A) (A) (A) (A) (A) (A) (A) (A) (A) (A)
                 (A) (A) (A) (A) (A) (A) (A) (A) (A) (A) (A) (A)
                 (A) (A) (A) (A) (A) (A) (A) (A) (A) (A) (A) (A)
                 (A) (A) (A) (A) (A) (A) (A) (A) (A) (A) (A) (A)
                 (A) (A) (A) (A) (A) (A) (A) (A) (A) (A) (A) (A)
                 (A) (A) (A) (A) (A) (A) (A) (A) (A) (A) (A) (A)
                 (A) (A) (A) (A) (A) (A) (A) (A) (A) (A) (A) (A)
 The electronic state is 2-A.
 Alpha  occ. eigenvalues --  -88.83918 -88.83918 -19.02626 -19.02626 -14.28376
 Alpha  occ. eigenvalues --  -14.28376 -14.25137 -14.25137 -10.19531 -10.19531
 Alpha  occ. eigenvalues --  -10.15682 -10.15682 -10.14521 -10.14521 -10.13982
 Alpha  occ. eigenvalues --  -10.13982 -10.12228 -10.12228 -10.12061 -10.12061
 Alpha  occ. eigenvalues --  -10.11880 -10.11880 -10.11545 -10.11545 -10.11330
 Alpha  occ. eigenvalues --  -10.11330 -10.09520 -10.09470  -7.89438  -7.89438
 Alpha  occ. eigenvalues --   -5.85948  -5.85948  -5.85452  -5.85452  -5.85213
 Alpha  occ. eigenvalues --   -5.85213  -0.94092  -0.93525  -0.87176  -0.86589
 Alpha  occ. eigenvalues --   -0.86067  -0.85377  -0.76120  -0.76106  -0.72118
 Alpha  occ. eigenvalues --   -0.71907  -0.70860  -0.66488  -0.65620  -0.65575
 Alpha  occ. eigenvalues --   -0.65544  -0.61876  -0.59432  -0.57711  -0.54245
 Alpha  occ. eigenvalues --   -0.54024  -0.51535  -0.50544  -0.50379  -0.49078
 Alpha  occ. eigenvalues --   -0.46336  -0.44558  -0.44002  -0.43256  -0.39719
 Alpha  occ. eigenvalues --   -0.39390  -0.38651  -0.38600  -0.37649  -0.36892
 Alpha  occ. eigenvalues --   -0.36496  -0.36229  -0.35221  -0.35080  -0.34604
 Alpha  occ. eigenvalues --   -0.33478  -0.32828  -0.32718  -0.32607  -0.31561
 Alpha  occ. eigenvalues --   -0.29922  -0.28976  -0.28709  -0.27730  -0.27314
 Alpha  occ. eigenvalues --   -0.26785  -0.25931  -0.25469  -0.25368  -0.25277
 Alpha  occ. eigenvalues --   -0.24563  -0.20631  -0.20290  -0.19924  -0.19871
 Alpha  occ. eigenvalues --   -0.17387  -0.17102  -0.16685  -0.16502  -0.15758
 Alpha  occ. eigenvalues --   -0.14977  -0.14405  -0.09784  -0.05421
 Alpha virt. eigenvalues --    0.00806   0.04192   0.07407   0.07431   0.07529
 Alpha virt. eigenvalues --    0.08999   0.09048   0.09211   0.09269   0.09911
 Alpha virt. eigenvalues --    0.10042   0.10274   0.10718   0.10981   0.11735
 Alpha virt. eigenvalues --    0.11825   0.11926   0.12295   0.12798   0.12994
 Alpha virt. eigenvalues --    0.13392   0.13728   0.14273   0.14386   0.15000
 Alpha virt. eigenvalues --    0.15221   0.15351   0.15585   0.16303   0.16587
 Alpha virt. eigenvalues --    0.16656   0.17390   0.17404   0.17928   0.18043
 Alpha virt. eigenvalues --    0.18389   0.18591   0.19027   0.19294   0.19579
 Alpha virt. eigenvalues --    0.20115   0.20300   0.20590   0.20743   0.21232
 Alpha virt. eigenvalues --    0.21445   0.21717   0.22206   0.22347   0.22676
 Alpha virt. eigenvalues --    0.22712   0.22793   0.23149   0.23446   0.24131
 Alpha virt. eigenvalues --    0.24590   0.24708   0.24948   0.25518   0.25559
 Alpha virt. eigenvalues --    0.25568   0.25957   0.26179   0.26458   0.27034
 Alpha virt. eigenvalues --    0.27503   0.27666   0.27766   0.27924   0.28392
 Alpha virt. eigenvalues --    0.28408   0.28829   0.29103   0.29393   0.29656
 Alpha virt. eigenvalues --    0.30040   0.30249   0.30349   0.30407   0.30551
 Alpha virt. eigenvalues --    0.30656   0.31514   0.31526   0.31693   0.31958
 Alpha virt. eigenvalues --    0.32231   0.32434   0.32504   0.33269   0.33278
 Alpha virt. eigenvalues --    0.33490   0.33532   0.33796   0.34426   0.34617
 Alpha virt. eigenvalues --    0.35157   0.35194   0.35465   0.35651   0.35995
 Alpha virt. eigenvalues --    0.36009   0.36317   0.36393   0.36583   0.37343
 Alpha virt. eigenvalues --    0.37394   0.37650   0.38129   0.38135   0.38763
 Alpha virt. eigenvalues --    0.39071   0.39304   0.39321   0.39607   0.39650
 Alpha virt. eigenvalues --    0.40584   0.41135   0.41277   0.41389   0.41872
 Alpha virt. eigenvalues --    0.41892   0.42208   0.42542   0.42944   0.43174
 Alpha virt. eigenvalues --    0.43514   0.44282   0.44353   0.44675   0.44897
 Alpha virt. eigenvalues --    0.45383   0.45888   0.46252   0.46928   0.47217
 Alpha virt. eigenvalues --    0.48280   0.48651   0.49666   0.49935   0.50638
 Alpha virt. eigenvalues --    0.51214   0.51969   0.52743   0.53135   0.53716
 Alpha virt. eigenvalues --    0.55335   0.55876   0.56172   0.57071   0.58868
 Alpha virt. eigenvalues --    0.60232   0.61196   0.62204   0.62529   0.63602
 Alpha virt. eigenvalues --    0.64515   0.66039   0.67399   0.69594   0.70114
 Alpha virt. eigenvalues --    0.71247   0.72616   0.73247   0.74121   0.74830
 Alpha virt. eigenvalues --    0.75221   0.75969   0.76427   0.76619   0.77202
 Alpha virt. eigenvalues --    0.77730   0.78240   0.78559   0.79535   0.79965
 Alpha virt. eigenvalues --    0.80584   0.80594   0.81266   0.81530   0.81622
 Alpha virt. eigenvalues --    0.81936   0.82034   0.82802   0.83281   0.83361
 Alpha virt. eigenvalues --    0.84144   0.84373   0.85025   0.85211   0.85955
 Alpha virt. eigenvalues --    0.87275   0.87370   0.88190   0.88372   0.88788
 Alpha virt. eigenvalues --    0.88889   0.90078   0.90683   0.90796   0.92798
 Alpha virt. eigenvalues --    0.93032   0.94668   0.95173   0.95274   0.96532
 Alpha virt. eigenvalues --    0.97038   0.98103   0.99447   1.00116   1.01151
 Alpha virt. eigenvalues --    1.01310   1.01755   1.03001   1.03050   1.03537
 Alpha virt. eigenvalues --    1.04974   1.05049   1.06136   1.07144   1.08310
 Alpha virt. eigenvalues --    1.08657   1.09603   1.10028   1.10592   1.11638
 Alpha virt. eigenvalues --    1.11666   1.13579   1.13798   1.14336   1.14626
 Alpha virt. eigenvalues --    1.15353   1.16484   1.16563   1.17587   1.17799
 Alpha virt. eigenvalues --    1.19401   1.19492   1.19890   1.20544   1.20961
 Alpha virt. eigenvalues --    1.21566   1.21985   1.23624   1.23812   1.25697
 Alpha virt. eigenvalues --    1.26281   1.27515   1.27766   1.28176   1.28841
 Alpha virt. eigenvalues --    1.29471   1.30659   1.31195   1.31959   1.32920
 Alpha virt. eigenvalues --    1.33746   1.33867   1.34506   1.34520   1.36170
 Alpha virt. eigenvalues --    1.37309   1.37334   1.37819   1.39168   1.40655
 Alpha virt. eigenvalues --    1.40843   1.41501   1.41954   1.42833   1.43208
 Alpha virt. eigenvalues --    1.43223   1.44760   1.46064   1.46726   1.47017
 Alpha virt. eigenvalues --    1.47197   1.47630   1.47652   1.48342   1.48384
 Alpha virt. eigenvalues --    1.48920   1.49290   1.49986   1.50094   1.50328
 Alpha virt. eigenvalues --    1.51584   1.51925   1.52633   1.53992   1.54120
 Alpha virt. eigenvalues --    1.54643   1.55294   1.56708   1.57932   1.59045
 Alpha virt. eigenvalues --    1.60281   1.62102   1.64823   1.68747   1.69653
 Alpha virt. eigenvalues --    1.73941   1.75585   1.75732   1.79547   1.80242
 Alpha virt. eigenvalues --    1.81795   1.83284   1.86617   1.86638   1.87698
 Alpha virt. eigenvalues --    1.87791   1.89051   1.90195   1.90611   1.91657
 Alpha virt. eigenvalues --    1.92300   1.92999   1.93619   1.94300   1.95140
 Alpha virt. eigenvalues --    1.95775   1.96074   1.96408   1.97230   1.98656
 Alpha virt. eigenvalues --    1.99162   2.00006   2.00099   2.01213   2.01700
 Alpha virt. eigenvalues --    2.02963   2.03183   2.03703   2.04186   2.05449
 Alpha virt. eigenvalues --    2.05550   2.07476   2.08150   2.08293   2.08412
 Alpha virt. eigenvalues --    2.09939   2.11845   2.12588   2.13138   2.13300
 Alpha virt. eigenvalues --    2.14302   2.14867   2.16272   2.16762   2.17963
 Alpha virt. eigenvalues --    2.19712   2.21611   2.21705   2.25965   2.27250
 Alpha virt. eigenvalues --    2.28967   2.29114   2.29885   2.31030   2.34082
 Alpha virt. eigenvalues --    2.34206   2.34898   2.35450   2.37596   2.38496
 Alpha virt. eigenvalues --    2.39642   2.41321   2.44382   2.44667   2.44920
 Alpha virt. eigenvalues --    2.45371   2.45529   2.45750   2.46577   2.47544
 Alpha virt. eigenvalues --    2.48110   2.49486   2.49630   2.51409   2.52229
 Alpha virt. eigenvalues --    2.53574   2.54142   2.55012   2.55434   2.57364
 Alpha virt. eigenvalues --    2.57903   2.59044   2.60178   2.60892   2.61943
 Alpha virt. eigenvalues --    2.62437   2.63841   2.66096   2.66386   2.66759
 Alpha virt. eigenvalues --    2.67048   2.67305   2.69735   2.70100   2.70975
 Alpha virt. eigenvalues --    2.71605   2.71608   2.72217   2.75286   2.76257
 Alpha virt. eigenvalues --    2.76726   2.78282   2.80176   2.81760   2.81903
 Alpha virt. eigenvalues --    2.85890   2.85915   2.87046   2.87095   2.88210
 Alpha virt. eigenvalues --    2.89867   2.89966   2.90876   2.94576   2.96327
 Alpha virt. eigenvalues --    3.00071   3.03908   3.05809   3.07781   3.08375
 Alpha virt. eigenvalues --    3.11259   3.13031   3.13549   3.15496   3.15843
 Alpha virt. eigenvalues --    3.23254   3.24740   3.25754   3.29254   3.29721
 Alpha virt. eigenvalues --    3.34999   3.35058   3.36439   3.36579   3.41228
 Alpha virt. eigenvalues --    3.43748   3.44284   3.44486   3.48886   3.54675
 Alpha virt. eigenvalues --    3.57770   3.58155   3.66454   3.66830   3.92454
 Alpha virt. eigenvalues --    3.92472   4.09925   4.10135   4.23309   4.24352
 Alpha virt. eigenvalues --    4.34971   4.37831   4.37942   4.40918   4.41602
 Alpha virt. eigenvalues --    4.43256   4.43869   4.45350   4.48413   4.49387
 Alpha virt. eigenvalues --    4.51794   4.54032   4.55222   4.61069   4.61265
 Alpha virt. eigenvalues --    4.61913   4.62695   4.70644   4.79022   4.88089
 Alpha virt. eigenvalues --    4.96036   4.96344   5.08575   5.16725
  Beta  occ. eigenvalues --  -88.83843 -88.83843 -19.02513 -19.02513 -14.28373
  Beta  occ. eigenvalues --  -14.28373 -14.24753 -14.24753 -10.19509 -10.19508
  Beta  occ. eigenvalues --  -10.15418 -10.15418 -10.14594 -10.14594 -10.14069
  Beta  occ. eigenvalues --  -10.14069 -10.12149 -10.12149 -10.12100 -10.12100
  Beta  occ. eigenvalues --  -10.11941 -10.11941 -10.11438 -10.11438 -10.11227
  Beta  occ. eigenvalues --  -10.11227 -10.09573 -10.09524  -7.89366  -7.89366
  Beta  occ. eigenvalues --   -5.85907  -5.85907  -5.85413  -5.85413  -5.84969
  Beta  occ. eigenvalues --   -5.84969  -0.93925  -0.93347  -0.86959  -0.86247
  Beta  occ. eigenvalues --   -0.85677  -0.85110  -0.75964  -0.75951  -0.71892
  Beta  occ. eigenvalues --   -0.71688  -0.70868  -0.66323  -0.65474  -0.65380
  Beta  occ. eigenvalues --   -0.65352  -0.61610  -0.58943  -0.57636  -0.54081
  Beta  occ. eigenvalues --   -0.53894  -0.51432  -0.50446  -0.50280  -0.48944
  Beta  occ. eigenvalues --   -0.46265  -0.44468  -0.43920  -0.43112  -0.39643
  Beta  occ. eigenvalues --   -0.39308  -0.38565  -0.38520  -0.37599  -0.36767
  Beta  occ. eigenvalues --   -0.36112  -0.36098  -0.35163  -0.34997  -0.34526
  Beta  occ. eigenvalues --   -0.32980  -0.32591  -0.32546  -0.32211  -0.31167
  Beta  occ. eigenvalues --   -0.29863  -0.28903  -0.28613  -0.27648  -0.27233
  Beta  occ. eigenvalues --   -0.26218  -0.25400  -0.25251  -0.25117  -0.24332
  Beta  occ. eigenvalues --   -0.23672  -0.20217  -0.19903  -0.19525  -0.19459
  Beta  occ. eigenvalues --   -0.17232  -0.16951  -0.16075  -0.16031  -0.15602
  Beta  occ. eigenvalues --   -0.14283  -0.13634  -0.08409
  Beta virt. eigenvalues --   -0.01035   0.01848   0.04831   0.07410   0.07529
  Beta virt. eigenvalues --    0.07919   0.09117   0.09211   0.09585   0.09650
  Beta virt. eigenvalues --    0.09933   0.10145   0.10404   0.10771   0.11280
  Beta virt. eigenvalues --    0.11824   0.11904   0.12078   0.12331   0.12816
  Beta virt. eigenvalues --    0.13086   0.13469   0.13779   0.14356   0.14405
  Beta virt. eigenvalues --    0.15078   0.15318   0.15408   0.15660   0.16324
  Beta virt. eigenvalues --    0.16655   0.16751   0.17440   0.17446   0.17980
  Beta virt. eigenvalues --    0.18092   0.18397   0.18681   0.19259   0.19340
  Beta virt. eigenvalues --    0.19702   0.20149   0.20354   0.20722   0.20799
  Beta virt. eigenvalues --    0.21245   0.21472   0.21792   0.22256   0.22381
  Beta virt. eigenvalues --    0.22726   0.23004   0.23121   0.23206   0.23605
  Beta virt. eigenvalues --    0.24191   0.24605   0.24774   0.24966   0.25589
  Beta virt. eigenvalues --    0.25616   0.25619   0.25982   0.26235   0.26487
  Beta virt. eigenvalues --    0.27071   0.27518   0.27658   0.27828   0.27993
  Beta virt. eigenvalues --    0.28430   0.28463   0.28917   0.29209   0.29459
  Beta virt. eigenvalues --    0.29700   0.30106   0.30284   0.30416   0.30448
  Beta virt. eigenvalues --    0.30597   0.30723   0.31592   0.31606   0.31735
  Beta virt. eigenvalues --    0.31976   0.32278   0.32493   0.32556   0.33308
  Beta virt. eigenvalues --    0.33348   0.33542   0.33579   0.33911   0.34508
  Beta virt. eigenvalues --    0.34653   0.35213   0.35226   0.35501   0.35716
  Beta virt. eigenvalues --    0.36051   0.36074   0.36449   0.36450   0.36610
  Beta virt. eigenvalues --    0.37380   0.37464   0.37731   0.38237   0.38238
  Beta virt. eigenvalues --    0.38813   0.39096   0.39345   0.39380   0.39654
  Beta virt. eigenvalues --    0.39671   0.40648   0.41187   0.41359   0.41431
  Beta virt. eigenvalues --    0.41888   0.41953   0.42267   0.42626   0.43021
  Beta virt. eigenvalues --    0.43299   0.43591   0.44359   0.44388   0.44754
  Beta virt. eigenvalues --    0.44967   0.45489   0.45935   0.46351   0.46980
  Beta virt. eigenvalues --    0.47238   0.48358   0.48718   0.49798   0.49980
  Beta virt. eigenvalues --    0.50689   0.51284   0.52052   0.52813   0.53183
  Beta virt. eigenvalues --    0.53750   0.55429   0.55914   0.56221   0.57176
  Beta virt. eigenvalues --    0.58985   0.60333   0.61268   0.62309   0.62635
  Beta virt. eigenvalues --    0.63670   0.64793   0.66379   0.67526   0.69670
  Beta virt. eigenvalues --    0.70186   0.71340   0.72724   0.73353   0.74206
  Beta virt. eigenvalues --    0.74968   0.75324   0.76093   0.76628   0.76711
  Beta virt. eigenvalues --    0.77366   0.77771   0.78394   0.78742   0.79696
  Beta virt. eigenvalues --    0.80060   0.80882   0.80957   0.81376   0.81785
  Beta virt. eigenvalues --    0.81884   0.81947   0.82134   0.83269   0.83450
  Beta virt. eigenvalues --    0.83472   0.84356   0.84558   0.85281   0.85371
  Beta virt. eigenvalues --    0.86119   0.87471   0.87625   0.88379   0.88448
  Beta virt. eigenvalues --    0.88948   0.89015   0.90210   0.90756   0.90839
  Beta virt. eigenvalues --    0.92803   0.93135   0.94705   0.95404   0.95466
  Beta virt. eigenvalues --    0.96570   0.97076   0.98151   0.99511   1.00189
  Beta virt. eigenvalues --    1.01217   1.01523   1.01812   1.03075   1.03080
  Beta virt. eigenvalues --    1.03633   1.05091   1.05204   1.06218   1.07214
  Beta virt. eigenvalues --    1.08349   1.08876   1.09709   1.10142   1.10682
  Beta virt. eigenvalues --    1.11700   1.11803   1.13709   1.14374   1.14480
  Beta virt. eigenvalues --    1.15388   1.15867   1.16643   1.16703   1.17795
  Beta virt. eigenvalues --    1.17864   1.19493   1.19622   1.20084   1.20653
  Beta virt. eigenvalues --    1.21040   1.21754   1.21984   1.23667   1.23869
  Beta virt. eigenvalues --    1.25746   1.26398   1.27720   1.27969   1.28294
  Beta virt. eigenvalues --    1.29043   1.29628   1.30780   1.31311   1.32035
  Beta virt. eigenvalues --    1.32959   1.33870   1.33987   1.34618   1.34625
  Beta virt. eigenvalues --    1.36316   1.37486   1.37615   1.37891   1.39409
  Beta virt. eigenvalues --    1.40725   1.41031   1.41574   1.42030   1.42981
  Beta virt. eigenvalues --    1.43288   1.43372   1.44870   1.46140   1.46839
  Beta virt. eigenvalues --    1.47135   1.47335   1.47871   1.47907   1.48511
  Beta virt. eigenvalues --    1.48548   1.49055   1.49359   1.50180   1.50182
  Beta virt. eigenvalues --    1.50361   1.51666   1.52027   1.52743   1.54111
  Beta virt. eigenvalues --    1.54192   1.54715   1.55429   1.56809   1.58008
  Beta virt. eigenvalues --    1.59143   1.60446   1.62260   1.64912   1.68902
  Beta virt. eigenvalues --    1.69785   1.74118   1.75773   1.75918   1.79763
  Beta virt. eigenvalues --    1.80415   1.82007   1.83393   1.86799   1.86829
  Beta virt. eigenvalues --    1.87854   1.88011   1.89154   1.90652   1.91160
  Beta virt. eigenvalues --    1.91891   1.92515   1.93077   1.93872   1.94436
  Beta virt. eigenvalues --    1.95273   1.96205   1.96227   1.96756   1.97343
  Beta virt. eigenvalues --    1.98790   1.99222   2.00106   2.00163   2.01321
  Beta virt. eigenvalues --    2.01808   2.03182   2.03286   2.03807   2.04392
  Beta virt. eigenvalues --    2.05546   2.05626   2.07633   2.08253   2.08377
  Beta virt. eigenvalues --    2.08552   2.10022   2.12006   2.12637   2.13272
  Beta virt. eigenvalues --    2.13318   2.14428   2.15040   2.16516   2.16852
  Beta virt. eigenvalues --    2.18042   2.19742   2.21868   2.22027   2.26101
  Beta virt. eigenvalues --    2.27259   2.29113   2.29164   2.29998   2.31193
  Beta virt. eigenvalues --    2.34254   2.34376   2.35042   2.35604   2.37767
  Beta virt. eigenvalues --    2.38651   2.39816   2.41663   2.44448   2.44872
  Beta virt. eigenvalues --    2.45030   2.45473   2.45550   2.45848   2.46697
  Beta virt. eigenvalues --    2.47669   2.48280   2.49734   2.49929   2.51514
  Beta virt. eigenvalues --    2.52366   2.53883   2.54504   2.55174   2.55644
  Beta virt. eigenvalues --    2.57481   2.58065   2.59154   2.60290   2.60964
  Beta virt. eigenvalues --    2.61984   2.62465   2.63852   2.66204   2.66563
  Beta virt. eigenvalues --    2.66860   2.67148   2.67410   2.69853   2.70297
  Beta virt. eigenvalues --    2.71062   2.71692   2.71722   2.72320   2.75353
  Beta virt. eigenvalues --    2.76419   2.76806   2.78439   2.80313   2.81864
  Beta virt. eigenvalues --    2.82025   2.86042   2.86059   2.87167   2.87176
  Beta virt. eigenvalues --    2.88254   2.90036   2.90134   2.90987   2.94669
  Beta virt. eigenvalues --    2.96453   3.00200   3.04040   3.06052   3.07904
  Beta virt. eigenvalues --    3.08407   3.11362   3.13059   3.13605   3.15558
  Beta virt. eigenvalues --    3.15908   3.23311   3.24836   3.25795   3.29304
  Beta virt. eigenvalues --    3.29771   3.35008   3.35066   3.36515   3.36643
  Beta virt. eigenvalues --    3.41259   3.43762   3.44311   3.44507   3.48927
  Beta virt. eigenvalues --    3.54730   3.57794   3.58176   3.66489   3.66885
  Beta virt. eigenvalues --    3.92485   3.92503   4.10168   4.10376   4.23842
  Beta virt. eigenvalues --    4.24893   4.35012   4.37887   4.37996   4.40966
  Beta virt. eigenvalues --    4.41660   4.43312   4.43962   4.45490   4.48445
  Beta virt. eigenvalues --    4.49401   4.51841   4.54074   4.55442   4.61065
  Beta virt. eigenvalues --    4.61259   4.62056   4.62774   4.70830   4.79265
  Beta virt. eigenvalues --    4.88201   4.96107   4.96439   5.08680   5.16828
          Condensed to atoms (all electrons):
              1          2          3          4          5          6
     1  N    7.502906   0.550063  -0.000559   0.052729  -0.474533  -0.070756
     2  C    0.550063  11.102076  -0.507319  -2.044905  -4.904950   0.488529
     3  C   -0.000559  -0.507319  11.424614   1.096065  -4.229924  -1.634701
     4  C    0.052729  -2.044905   1.096065  19.358416  -0.816989  -4.229944
     5  C   -0.474533  -4.904950  -4.229924  -0.816989  19.358448   1.096044
     6  C   -0.070756   0.488529  -1.634701  -4.229944   1.096044  11.424618
     7  C   -0.044233   0.742967   0.488513  -4.904945  -2.044900  -0.507307
     8  N    0.001749  -0.044237  -0.070756  -0.474526   0.052731  -0.000556
     9  O   -0.118479   0.260789  -0.035072  -0.032785  -0.006116   0.065234
    10  O   -0.003500   0.008701   0.065233  -0.006116  -0.032785  -0.035071
    11  H    0.000533   0.004665  -0.013589   0.071031   0.044618  -0.044589
    12  H    0.287954  -0.059053  -0.044589   0.044618   0.071029  -0.013589
    13  C   -0.025771   0.253699  -0.213815  -0.579181  -1.494545   0.919543
    14  C   -0.009819  -0.200357   0.496232  -0.375165   0.343281  -2.156655
    15  C    0.013619  -0.250698   0.104116   0.868623   0.408513  -1.085011
    16  H   -0.000010  -0.001672  -0.001273  -0.012594  -0.000449   0.018859
    17  C    0.001148   0.109291  -0.031022  -0.346253  -0.012011   0.061296
    18  H    0.000000   0.000016   0.000016   0.000197  -0.000005  -0.002674
    19  C   -0.000179  -0.020600   0.008727   0.042988  -0.009171  -0.199660
    20  H    0.000000   0.000005   0.000000  -0.000015   0.000023   0.000159
    21  C   -0.000392   0.115240  -0.051548  -0.148162  -0.304077   1.226432
    22  C   -0.099254  -0.231836  -0.118460  -0.464178   0.104261   0.530600
    23  S    0.024688   0.034513   0.044580   0.209776  -0.127588  -0.478243
    24  N    0.001439   0.033143   0.005911   0.021264   0.059014  -0.038633
    25  C   -0.126791  -0.059737   0.919545  -1.494516  -0.579154  -0.213807
    26  C   -0.101115  -0.368533  -2.156635   0.343307  -0.375146   0.496233
    27  C    0.146081  -0.063348  -1.085060   0.408487   0.868592   0.104107
    28  H   -0.019622   0.017910   0.018860  -0.000449  -0.012595  -0.001273
    29  C    0.054227   0.317509   0.061315  -0.012016  -0.346257  -0.031021
    30  H    0.000577   0.000035  -0.002674  -0.000005   0.000197   0.000016
    31  C    0.002413  -0.024791  -0.199667  -0.009170   0.042987   0.008727
    32  H    0.000017  -0.000016   0.000159   0.000023  -0.000015   0.000000
    33  C   -0.046316   0.061904   1.226465  -0.304074  -0.148156  -0.051547
    34  C   -0.171022   0.120366   0.530583   0.104268  -0.464179  -0.118462
    35  S    0.043179   0.132518  -0.478248  -0.127591   0.209767   0.044577
    36  N    0.003411  -0.000333  -0.038639   0.059013   0.021263   0.005911
    37  H    0.000000  -0.000052   0.000003   0.000022   0.000055  -0.000427
    38  H   -0.000003   0.000003  -0.000427   0.000055   0.000022   0.000003
              7          8          9         10         11         12
     1  N   -0.044233   0.001749  -0.118479  -0.003500   0.000533   0.287954
     2  C    0.742967  -0.044237   0.260789   0.008701   0.004665  -0.059053
     3  C    0.488513  -0.070756  -0.035072   0.065233  -0.013589  -0.044589
     4  C   -4.904945  -0.474526  -0.032785  -0.006116   0.071031   0.044618
     5  C   -2.044900   0.052731  -0.006116  -0.032785   0.044618   0.071029
     6  C   -0.507307  -0.000556   0.065234  -0.035071  -0.044589  -0.013589
     7  C   11.102065   0.550054   0.008701   0.260788  -0.059053   0.004665
     8  N    0.550054   7.502905  -0.003500  -0.118479   0.287954   0.000533
     9  O    0.008701  -0.003500   8.468700   0.000011  -0.000013   0.004361
[...]
 0111863,0.00016690,-0.00014455,0.00005591,-0.00194171,0.00169248,-0.00
 055490,-0.00731547,-0.00455404,0.00003472,-0.00275786,0.00504763,-0.00
 081123,0.00120526,0.00107374,-0.00046052,-0.04022933,-0.03522555,-0.00
 459577,-0.20554700,0.04709478,0.02283638,-0.02041032,0.03735633,0.0099
 7109,-0.00032603,-0.00091986,0.00012067,0.02903217,-0.00121587,-0.0016
 5600,0.00085658,-0.00039356,0.00010664,-0.00864102,-0.01707962,-0.0047
 4406,0.00019408,-0.00038537,-0.00015478,-0.01139444,0.00461667,0.00220
 067,0.65500037,-0.04574495,-0.02162584,-0.00164472,0.01272518,-0.01281
 108,-0.00036521,-0.05026229,-0.12464932,-0.00486509,-0.00312714,0.0203
 9437,0.00156986,0.00001468,0.00635225,-0.00037441,0.00683193,0.0027079
 3,-0.00008309,0.00578115,0.00155819,0.00023472,-0.00196974,-0.00329293
 ,0.00002654,-0.00318535,0.00379721,0.00023467,-0.00261597,-0.00105834,
 0.00002302,0.00027253,0.00003957,0.00009300,0.00000895,0.00087788,0.00
 050551,0.00080634,-0.00155581,0.00034842,0.00198926,-0.00191643,0.0003
 8449,-0.00118782,0.00188913,-0.00044849,-0.00008127,-0.00006798,0.0000
 3243,0.00239937,0.00002198,-0.00001014,0.00009451,-0.00009199,0.000001
 14,-0.00049035,-0.00190091,0.00059079,0.00007080,-0.00006701,0.0000274
 5,-0.00105489,0.00093831,-0.00031476,-0.00458462,-0.00326123,0.0001500
 1,-0.00133948,0.00264613,-0.00043436,0.00064594,0.00078724,-0.00027733
 ,0.00135708,0.02153654,0.00415480,0.06393131,-0.13264242,-0.02098498,0
 .03486660,-0.01492910,-0.00534109,-0.00042840,0.00104516,0.00104490,-0
 .00798701,-0.00438761,-0.00251745,0.00118607,-0.00034633,-0.00039946,0
 .00421264,0.00264953,0.00077688,0.00004244,0.00002687,0.00012618,-0.00
 190356,-0.00530277,-0.00205091,0.03562930,0.41286405,-0.00215291,0.000
 02799,0.00290828,0.00027701,-0.00079112,0.00024089,0.00602576,-0.00603
 288,-0.04694939,0.00101333,0.00139320,0.00092818,0.00034564,-0.0000329
 2,0.00476876,0.00009157,0.00043205,0.00111891,0.00009391,0.00064368,-0
 .00200993,-0.00025697,-0.00026020,0.00019683,-0.00009517,0.00023974,0.
 00071289,-0.00014904,-0.00065058,0.00053528,0.00002635,-0.00000900,-0.
 00001826,0.00032804,-0.00025506,-0.00039604,-0.00000859,0.00000051,-0.
 00009572,0.00000667,-0.00000917,0.00000499,-0.00004236,-0.00000687,-0.
 00009918,-0.00000091,-0.00000519,-0.00000641,0.00004295,-0.00000119,0.
 00006362,0.00000072,-0.00000318,0.00000124,-0.00001035,-0.00004523,-0.
 00004001,0.00000298,-0.00000104,-0.00000172,0.00003410,0.00004274,0.00
 007200,0.00000517,-0.00012847,-0.00049545,-0.00002331,0.00004730,0.000
 04549,0.00003253,0.00000783,0.00003128,0.00248905,0.00559728,0.0079126
 4,0.02347814,-0.01974894,-0.06019809,0.01087332,-0.00634460,-0.0022004
 6,0.00004851,0.00113279,-0.00232146,-0.00401600,-0.00295577,0.00459813
 ,0.00035465,-0.00034926,0.00081515,0.00131378,0.00236337,-0.00014810,-
 0.00001050,0.00012419,-0.00032210,0.00056960,-0.00222386,0.00151692,-0
 .03366134,0.05650969,0.11934976,-0.00483437,-0.00027327,-0.00040890,0.
 00336923,-0.00409644,-0.00019979,0.00452388,-0.02464184,-0.00451031,-0
 .00282496,0.00105735,0.00059738,-0.00174765,0.00289109,-0.00013435,0.0
 0337624,0.00073920,-0.00005647,-0.00164772,-0.00187928,-0.00032679,-0.
 00015010,-0.00063801,0.00022828,-0.00059630,0.00223308,0.00013534,-0.0
 0124448,0.00058434,0.00010121,0.00000853,0.00008972,0.00000956,0.00019
 666,0.00008157,-0.00006925,0.00024069,-0.00005552,-0.00002572,0.000895
 38,-0.00101690,0.00017930,-0.00060799,0.00098721,-0.00025111,-0.000071
 44,-0.00001189,-0.00001139,0.00123531,-0.00015581,0.00006701,0.0000552
 3,-0.00008174,0.00001388,-0.00027085,-0.00087933,0.00027239,0.00009339
 ,-0.00005246,0.00001858,-0.00041788,0.00031985,-0.00011759,-0.00271135
 ,-0.00130022,0.00004429,-0.00094950,0.00122492,-0.00024234,0.00114790,
 0.00018918,0.00001036,-0.06688823,0.04126101,0.01212814,-0.00080771,0.
 00012463,0.00017966,-0.00538971,0.00096009,0.00063506,0.00019479,-0.00
 078576,-0.00030497,-0.00121178,-0.00351411,-0.00082742,-0.00023562,0.0
 0020920,-0.00000763,-0.00238004,0.00556751,0.00164301,0.00009054,0.000
 43716,0.00011203,0.01201641,-0.00131454,-0.00063290,-0.05248560,-0.031
 85103,-0.00488865,0.28265639,0.00278736,0.00431557,0.00057604,-0.00308
 553,0.00784788,-0.00017726,-0.03559914,-0.01404562,-0.00228766,0.01373
 314,-0.00513877,-0.00109374,0.00489784,-0.00865949,0.00057507,-0.00651
 366,-0.00072068,0.00013716,-0.00339875,0.00831189,-0.00007726,0.000830
 67,0.00191023,-0.00038200,-0.00109966,-0.00616040,-0.00002505,-0.00317
 414,-0.00347411,-0.00073415,0.00003746,-0.00001531,-0.00003215,-0.0003
 5877,-0.00030305,0.00007456,-0.00090457,0.00190272,-0.00042070,-0.0020
 0461,0.00205500,-0.00039465,0.00124478,-0.00183314,0.00040919,0.000068
 97,0.00004765,-0.00000770,-0.00242574,-0.00012557,0.00003312,-0.000086
 33,0.00008147,0.00000849,0.00049616,0.00197363,-0.00060983,-0.00006342
 ,0.00006197,-0.00002101,0.00113751,-0.00099479,0.00030415,0.00501085,0
 .00260020,-0.00008502,0.00124402,-0.00296263,0.00047648,-0.00028095,-0
 .00084755,0.00033080,0.03458531,-0.03106842,-0.01127009,0.02959081,-0.
 04244738,-0.01274233,0.00251681,0.00193686,-0.00021088,-0.00007799,0.0
 0003083,0.00009123,0.00081723,0.00011610,-0.00010439,0.00019826,0.0000
 2434,0.00009033,-0.00140500,-0.00155185,-0.00050884,0.00007568,-0.0002
 9728,0.00011627,-0.00363735,-0.00178712,-0.00154244,0.02228225,-0.1324
 5791,-0.02332887,-0.03067552,0.26022415,0.00110421,0.00062214,0.001365
 71,-0.00056916,0.00123891,0.00068269,-0.00401757,-0.00097967,0.0009169
 2,0.00084990,-0.00041722,-0.00077210,0.00078537,-0.00112777,-0.0005596
 9,-0.00108036,-0.00019002,0.00005182,-0.00120442,-0.00063836,0.0004316
 2,0.00051574,0.00039228,0.00034790,-0.00001470,-0.00082849,-0.00011002
 ,0.00087480,0.00023564,-0.00132169,-0.00003285,-0.00001422,0.00002012,
 -0.00011921,-0.00016752,-0.00012117,-0.00011347,0.00017294,-0.00001338
 ,-0.00025980,0.00030547,-0.00008519,0.00019227,-0.00030000,0.00010176,
 0.00001388,0.00001713,-0.00000538,-0.00038110,0.00001514,-0.00002062,-
 0.00001452,0.00001837,0.00000201,0.00007814,0.00030015,-0.00009108,-0.
 00001387,0.00001367,-0.00000389,0.00015868,-0.00014015,0.00004140,0.00
 077282,0.00040922,0.00003806,0.00022660,-0.00044731,0.00001342,-0.0001
 7446,-0.00008656,0.00003435,0.01186211,-0.01026945,0.00335218,0.008599
 67,-0.01225607,0.00084222,0.00024676,-0.00018840,0.00514654,-0.0000551
 5,0.00010498,-0.00023501,0.00111541,0.00000888,0.00029066,0.00003154,0
 .00023137,-0.00078976,-0.00033900,-0.00130139,0.00052667,-0.00002536,0
 .00017831,-0.00100142,-0.00125728,-0.00197157,0.00680174,0.00274878,-0
 .02252844,-0.03387579,-0.02062773,0.05505699,0.04949074,0.00071984,0.0
 0190377,0.00042726,-0.00275208,0.00221615,0.00012947,-0.00174902,-0.00
 599334,-0.00146500,0.00037106,0.00361476,-0.00032255,-0.00308389,-0.00
 213529,0.00024356,-0.00008018,-0.00275690,0.00004016,-0.00219567,-0.00
 745831,-0.00045971,0.00229453,0.00121634,0.00009073,0.00032657,-0.0017
 6449,-0.00004698,0.00370815,0.00519178,0.00037806,-0.00004032,-0.00008
 213,-0.00004247,-0.00019510,0.00002012,0.00001696,0.00012434,-0.001558
 53,0.00043363,-0.00000283,0.00050019,-0.00013156,0.00025414,-0.0006941
 1,0.00021060,0.00009340,0.00005166,-0.00000896,-0.00073576,0.00049327,
 -0.00014347,-0.00005830,0.00011233,-0.00003813,0.00016698,0.00035136,-
 0.00012432,-0.00013819,0.00006721,-0.00002569,0.00002053,0.00012597,0.
 00001470,0.00114690,0.00060391,-0.00004358,0.00113925,-0.00024668,0.00
 018140,-0.00218378,0.00042804,-0.00029956,-0.09220020,0.06231224,0.016
 42312,0.00924074,-0.00601590,-0.00132794,-0.00640842,0.00149769,0.0006
 6495,0.00017019,-0.00072936,-0.00006968,0.00694319,0.00514971,0.001021
 45,0.00032191,0.00007364,0.00011113,-0.00695088,-0.01138014,-0.0026600
 3,-0.00053510,0.00136647,0.00047689,-0.01917729,0.04970115,0.01285442,
 -0.03556541,-0.01384330,-0.00191788,-0.16246331,-0.02708443,0.00005651
 ,0.30696977,-0.00174129,0.00159225,0.00018880,0.00087047,0.00081666,-0
 .00017447,-0.00304272,-0.00489694,-0.00071095,0.00252471,-0.00173507,0
 .00011149,0.00114341,-0.00116596,-0.00023296,-0.00156742,-0.00022406,0
 .00003284,-0.00248953,-0.00192319,-0.00015989,0.00072602,0.00162281,0.
 00004341,-0.00081892,-0.00095493,0.00013816,0.00260767,0.00083889,0.00
 037774,-0.00011191,-0.00000944,-0.00001003,0.00049258,0.00010931,-0.00
 029449,-0.00036490,0.00084435,-0.00022755,-0.00058094,0.00056628,-0.00
 004615,0.00032322,-0.00049059,0.00007526,0.00000695,0.00001999,-0.0000
 2089,-0.00065724,-0.00012122,0.00006711,-0.00002549,0.00000773,0.00000
 450,0.00012099,0.00058862,-0.00018439,0.00000883,0.00000539,-0.0000038
 6,0.00038609,-0.00033082,0.00009461,0.00111659,0.00080632,-0.00001575,
 0.00022267,-0.00089459,0.00010358,0.00039885,-0.00025494,0.00014921,0.
 01861552,-0.30947778,-0.06042532,-0.03638348,-0.05650527,-0.01509340,-
 0.00400584,-0.00233862,-0.00101865,0.00050202,-0.00201332,-0.00066131,
 -0.01123104,-0.01019054,-0.00194956,-0.00018689,0.00006222,-0.00017831
 ,0.00304716,0.02389850,0.00542852,0.00036455,0.00013648,-0.00015207,0.
 04344802,-0.03639624,-0.01083922,-0.00266103,-0.01822078,-0.00544058,0
 .04439683,-0.03854403,-0.00563225,-0.05463719,0.45413366,-0.00100108,0
 .00009255,0.00165712,0.00078136,0.00015837,0.00008566,-0.00047571,-0.0
 0114945,0.00145713,0.00113517,-0.00111428,-0.00082749,0.00095077,-0.00
 028259,0.00023762,-0.00085615,0.00025129,0.00004625,-0.00035978,0.0013
 5172,-0.00004368,-0.00017331,0.00026356,-0.00019465,-0.00045982,-0.000
 36899,-0.00022388,-0.00075722,-0.00073134,0.00091044,-0.00000660,0.000
 00897,-0.00002543,0.00012840,0.00004735,-0.00004100,-0.00014827,0.0004
 8475,-0.00011692,-0.00028044,0.00018778,-0.00009552,0.00012555,-0.0001
 4018,0.00003003,-0.00000403,-0.00000351,-0.00000847,-0.00021344,-0.000
 08432,0.00003234,-0.00000234,-0.00000714,0.00000192,0.00004277,0.00020
 375,-0.00005249,0.00001181,-0.00000207,-0.00000180,0.00013969,-0.00014
 809,0.00004419,0.00049843,0.00029866,0.00003498,0.00001520,-0.00036703
 ,0.00004047,0.00027976,-0.00015616,0.00009917,0.00540015,-0.06175910,-
 0.07238776,-0.00868918,-0.01657171,0.01379136,-0.00004937,-0.00151818,
 0.00198582,0.00009200,-0.00034733,-0.00002805,-0.00323452,-0.00228756,
 -0.00188620,-0.00005726,-0.00002151,0.00007405,0.00128938,0.00538955,0
 .00507254,0.00015512,-0.00022747,0.00069665,0.01140981,-0.01125763,-0.
 00190987,0.00157683,-0.00443148,0.00356338,0.01732509,-0.00228218,-0.0
 3099013,-0.02425241,0.09577776,0.08111270,-0.00000161,0.00004019,0.000
 00443,0.00000763,-0.00009310,0.00000394,-0.00003947,-0.00005783,0.0000
 0257,-0.00006610,0.00002779,0.00001005,-0.00008631,-0.00011706,-0.0000
 1756,-0.00027674,0.00051521,-0.00008626,0.00005157,0.00006867,0.000003
 89,0.00001779,0.00006922,-0.00000539,0.00000774,0.00006557,-0.00000505
 ,-0.00002340,-0.00005769,-0.00000377,0.00002744,0.00002175,0.00001293,
 -0.00000114,-0.00000445,-0.00000068,-0.01780487,-0.02226963,0.00481519
 ,-0.00315240,0.00329487,-0.00117049,-0.00045545,0.00105547,-0.00030527
 ,0.00002304,-0.00014663,0.00009699,0.00126739,0.00163714,-0.00074742,0
 .00028041,0.00033741,-0.00013866,0.00831293,0.00574429,-0.00125858,0.0
 0094911,-0.00041095,0.00038986,-0.21637037,-0.13716043,0.02783558,-0.0
 0061586,-0.00124292,0.00022035,-0.00020210,0.00034639,-0.00007254,0.00
 255752,-0.00082226,0.00034233,-0.00000263,-0.00003041,-0.00000975,-0.0
 0001424,0.00002596,0.00000395,0.00001481,-0.00003025,-0.00000583,0.000
 00362,-0.00000025,-0.00000100,-0.00003472,0.00001070,0.00000334,-0.000
 00191,0.00000381,0.00000109,0.00000759,0.00002038,0.00000634,-0.000004
 68,0.00000236,0.00000085,0.00000688,-0.00000114,-0.00000182,0.00005728
 ,0.00003089,0.00000069,0.00003770,-0.00002212,-0.00000583,-0.00005489,
 0.00000807,0.00000626,0.22558046,0.00001377,0.00003629,0.00000917,-0.0
 0002083,0.00001466,0.00000403,-0.00010203,-0.00003293,-0.00000489,0.00
 004177,-0.00006764,-0.00000874,0.00008666,0.00000071,0.00002465,-0.000
 01387,-0.00013910,0.00006476,0.00000950,0.00009808,0.00000864,-0.00002
 736,0.00000093,-0.00002941,-0.00001996,0.00000910,-0.00000254,-0.00002
 377,-0.00007739,-0.00000674,0.00001933,-0.00000247,0.00002808,0.000002
 08,-0.00000361,-0.00000052,0.00768499,0.00920674,-0.00106383,0.0016888
 0,-0.00003649,0.00122905,0.00065618,-0.00026438,-0.00006596,-0.0001041
 1,-0.00004916,-0.00031558,0.00296654,-0.00341616,0.00318291,-0.0011863
 3,-0.00078330,0.00034271,-0.02399895,-0.01339876,0.00327889,0.00036469
 ,0.00066775,-0.00152882,-0.13732649,-0.17503786,0.03063689,0.00083543,
 0.00041615,-0.00006071,-0.00016936,0.00003095,-0.00017052,-0.00056593,
 0.00063757,-0.00074062,-0.00000600,-0.00001130,-0.00000866,-0.00003156
 ,0.00004198,0.00000859,0.00002458,-0.00004072,-0.00000971,0.00000314,0
 .00000024,-0.00000041,-0.00005019,0.00000754,0.00000443,-0.00000207,0.
 00000370,0.00000085,0.00001014,0.00003519,0.00000946,-0.00000471,0.000
 00269,0.00000105,0.00001247,-0.00000920,-0.00000260,0.00010305,0.00004
 370,0.00000123,0.00004387,-0.00004594,-0.00000860,-0.00005407,-0.00000
 246,0.00000217,0.14914276,0.18216691,-0.00002673,-0.00002357,-0.000008
 02,0.00002177,0.00003091,0.00000628,0.00004986,0.00003116,-0.00001509,
 -0.00001717,0.00005203,-0.00004686,-0.00004984,-0.00003644,0.00009684,
 -0.00000986,0.00014851,0.00016865,0.00003004,-0.00005040,0.00002873,-0
 .00000151,-0.00002460,-0.00000955,-0.00001051,-0.00003689,-0.00001614,
 0.00000289,0.00003929,-0.00001033,0.00001191,0.00000225,0.00000991,-0.
 00000055,0.00000191,0.00000439,-0.00379789,-0.00213165,0.00439099,-0.0
 0058574,0.00170134,0.00397280,0.00008276,-0.00022216,-0.00048631,0.000
 04373,-0.00040908,-0.00112950,-0.00114950,0.00307522,0.00732360,0.0002
 3769,0.00032321,0.00040569,0.00654132,0.00503673,0.00211453,0.00016600
 ,-0.00157583,-0.00478414,0.02817910,0.03006708,-0.04031711,-0.00023475
 ,-0.00025199,-0.00020320,0.00003972,-0.00004416,-0.00050682,0.00042161
 ,-0.00088307,-0.00213500,0.00000169,0.00000837,0.00000251,0.00001422,-
 0.00002063,0.00000366,-0.00001247,0.00001929,0.00000128,-0.00000170,-0
 .00000080,0.00000123,0.00002313,-0.00000471,-0.00000115,0.00000130,-0.
 00000220,0.00000002,-0.00000391,-0.00001513,-0.00000674,0.00000216,-0.
 00000135,0.00000005,-0.00000464,0.00000395,0.00000245,-0.00004838,-0.0
 0002015,-0.00000273,-0.00002061,0.00002106,0.00000482,0.00002762,-0.00
 000053,-0.00000446,-0.02992370,-0.03480769,0.03114362,0.00001861,0.000
 07138,0.00000595,0.00005006,0.00006613,-0.00000435,-0.00028249,0.00051
 416,0.00008781,-0.00008233,-0.00011898,0.00001625,-0.00006599,0.000028
 35,-0.00001029,-0.00004421,-0.00005943,-0.00000100,0.00000526,-0.00009
 047,-0.00000398,-0.00000054,0.00004120,-0.00000454,-0.00002264,-0.0000
 5823,0.00000334,0.00000769,0.00006455,0.00000500,-0.00000072,-0.000005
 02,0.00000038,0.00002735,0.00002176,-0.00001310,-0.00000540,-0.0000268
 2,0.00000881,-0.00001659,0.00002815,-0.00000120,0.00001485,-0.00003224
 ,0.00000430,0.00000361,-0.00000025,0.00000117,-0.00003718,0.00001137,-
 0.00000093,-0.00000230,0.00000402,-0.00000121,0.00000858,0.00002319,-0
 .00000839,-0.00000499,0.00000216,-0.00000076,0.00001056,-0.00000220,0.
 00000135,0.00006188,0.00003289,-0.00000172,0.00003991,-0.00002628,0.00
 000675,-0.00005613,0.00000625,-0.00000633,-0.01780479,-0.02226566,-0.0
 0481638,-0.00315293,0.00329883,0.00117113,-0.00045313,0.00105216,0.000
 30550,0.00002306,-0.00014679,-0.00009704,0.00126360,0.00163569,0.00074
 822,0.00028054,0.00033723,0.00013864,0.00831256,0.00574721,0.00125867,
 0.00094948,-0.00041077,-0.00038976,-0.21637093,-0.13716168,-0.02783592
 ,-0.00061042,-0.00123986,-0.00022025,-0.00020157,0.00034253,0.00007262
 ,0.00255906,-0.00082538,-0.00034266,-0.00000201,-0.00000212,0.00000095
 ,0.22558062,-0.00002999,-0.00000293,0.00002810,0.00001311,0.00009479,-
 0.00000895,0.00000171,-0.00013500,-0.00006321,0.00008001,0.00000204,-0
 .00002506,0.00004134,-0.00006512,0.00000760,-0.00009936,-0.00003153,0.
 00000729,-0.00001834,0.00001530,-0.00000415,0.00001299,0.00003480,-0.0
 0000948,-0.00002403,-0.00007616,0.00000672,-0.00002044,0.00001129,0.00
 000214,0.00000234,-0.00000336,0.00000070,0.00001860,-0.00000199,-0.000
 02801,-0.00000731,-0.00001537,0.00000769,-0.00003062,0.00003820,-0.000
 00708,0.00002119,-0.00003661,0.00000814,0.00000289,0.00000015,0.000000
 40,-0.00004498,0.00000928,-0.00000270,-0.00000222,0.00000378,-0.000000
 97,0.00000979,0.00002980,-0.00000914,-0.00000496,0.00000240,-0.0000009
 3,0.00001307,-0.00000688,0.00000176,0.00009750,0.00003991,-0.00000118,
 0.00004509,-0.00004285,0.00000934,-0.00005772,0.00000166,-0.00000327,0
 .00769082,0.00919680,0.00106123,0.00169413,-0.00003956,-0.00122758,0.0
 0065392,-0.00026214,0.00006513,-0.00010387,-0.00004882,0.00031589,0.00
 297122,-0.00341588,-0.00318032,-0.00118589,-0.00078338,-0.00034285,-0.
 02399985,-0.01340387,-0.00328147,0.00036483,0.00066804,0.00152888,-0.1
 3733207,-0.17503387,-0.03063600,0.00082363,0.00040954,0.00006051,-0.00
 017424,0.00004088,0.00017189,-0.00056356,0.00064144,0.00074110,-0.0000
 0174,-0.00000198,0.00000072,0.14914299,0.18216718,0.00000327,0.0000279
 4,-0.00000806,-0.00003196,0.00004953,0.00002886,-0.00000197,-0.0001515
 7,0.00016843,0.00005665,0.00003486,0.00009702,0.00001399,-0.00005164,-
 0.00004756,-0.00004896,-0.00003250,-0.00001480,-0.00002314,-0.00002877
 ,0.00000604,0.00002696,0.00002318,-0.00000742,-0.00000217,-0.00003925,
 -0.00001056,0.00001016,0.00003493,-0.00001617,0.00000048,-0.00000232,0
 .00000402,-0.00001160,-0.00000223,0.00000949,-0.00000153,-0.00000659,0
 .00000212,-0.00001509,0.00002248,0.00000366,0.00001378,-0.00002197,0.0
 0000226,0.00000194,0.00000096,0.00000114,-0.00002599,0.00000528,-0.000
 00127,-0.00000140,0.00000243,0.00000001,0.00000444,0.00001827,-0.00000
 774,-0.00000235,0.00000144,0.00000003,0.00000591,-0.00000563,0.0000025
 7,0.00005087,0.00002159,-0.00000308,0.00001988,-0.00002222,0.00000433,
 -0.00002642,-0.00000125,-0.00000336,0.00379465,0.00213981,0.00439233,0
 .00058288,-0.00169828,0.00397392,-0.00008008,0.00021984,-0.00048658,-0
 .00004395,0.00040864,-0.00112956,0.00114586,-0.00307595,0.00732356,-0.
 00023771,-0.00032335,0.00040573,-0.00654181,-0.00503379,0.00211533,-0.
 00016572,0.00157584,-0.00478407,-0.02817611,-0.03006978,-0.04031827,0.
 00024363,0.00025703,-0.00020384,-0.00003667,0.00003732,-0.00050702,-0.
 00042269,0.00087962,-0.00213603,-0.00000103,-0.00000102,0.00000112,0.0
 2992299,0.03480711,0.03114339||-0.00000006,0.00000019,0.00000032,0.000
 00020,0.00000024,-0.00000105,0.00000098,-0.00000014,-0.00000033,-0.000
 00125,-0.00000003,0.00000005,0.00000129,-0.00000003,0.00000021,-0.0000
 0091,0.00000021,0.00000045,-0.00000036,-0.00000031,0.00000109,0.000000
 02,-0.00000023,-0.00000069,0.00000010,-0.00000003,0.00000034,-0.000000
 06,0.00000008,-0.00000034,-0.00000020,-0.00000002,-0.00000007,0.000000
 08,0.00000009,0.00000014,0.00000050,-0.00000007,-0.00000011,-0.0000010
 3,-0.00000063,0.00000006,0.00000076,-0.00000054,0.00000009,-0.00000020
 ,-0.00000029,0.00000007,-0.00000086,-0.00000069,0.00000004,-0.00000014
 ,-0.00000049,-0.00000001,0.00000022,-0.00000001,-0.00000014,-0.0000001
 7,-0.00000081,0.00000003,0.00000001,-0.00000108,0.00000014,0.00000053,
 0.00000001,-0.00000026,0.00000021,-0.00000058,0.00000005,-0.00000005,-
 0.00000055,0.00000006,-0.00000050,0.00000008,-0.00000014,0.00000104,0.
 00000063,0.00000002,-0.00000072,0.00000055,0.00000007,0.00000038,0.000
 00030,0.00000001,0.00000088,0.00000066,0.00000003,0.00000015,0.0000004
 9,0.,-0.00000025,0.,-0.00000015,0.00000016,0.00000081,0.00000003,-0.00
 000002,0.00000109,0.00000013,-0.00000060,0.00000002,-0.00000014,-0.000
 00023,0.00000055,-0.00000008,0.00000008,0.00000054,0.00000017,0.000000
 02,-0.00000048,-0.00000005,-0.00000002,0.00000048,-0.00000004|||@


 YOU CAN LEAD A BOY TO COLLEGE....
 BUT YOU CANNOT MAKE HIM THINK....
           ELBERT HUBBARD
 Job cpu time:  0 days  9 hours 17 minutes 40.0 seconds.
 File lengths (MBytes):  RWF=   4442 Int=      0 D2E=      0 Chk=     30 Scr=      1
 Normal termination of Gaussian 09 at Thu Sep 21 01:34:27 2023.
