 Entering Link 1 = C:\G09W\l1.exe PID=      9840.
  
 Copyright (c) 1988,1990,1992,1993,1995,1998,2003,2009,2010,
            Gaussian, Inc.  All Rights Reserved.
  
 This is part of the Gaussian(R) 09 program.  It is based on
 the Gaussian(R) 03 system (copyright 2003, Gaussian, Inc.),
 the Gaussian(R) 98 system (copyright 1998, Gaussian, Inc.),
 the Gaussian(R) 94 system (copyright 1995, Gaussian, Inc.),
 the Gaussian 92(TM) system (copyright 1992, Gaussian, Inc.),
 the Gaussian 90(TM) system (copyright 1990, Gaussian, Inc.),
 the Gaussian 88(TM) system (copyright 1988, Gaussian, Inc.),
 the Gaussian 86(TM) system (copyright 1986, Carnegie Mellon
 University), and the Gaussian 82(TM) system (copyright 1983,
 Carnegie Mellon University). Gaussian is a federally registered
 trademark of Gaussian, Inc.
  
 This software contains proprietary and confidential information,
 including trade secrets, belonging to Gaussian, Inc.
  
 This software is provided under written license and may be
 used, copied, transmitted, or stored only in accord with that
 written license.
  
 The following legend is applicable only to US Government
 contracts under FAR:
  
                    RESTRICTED RIGHTS LEGEND
  
 Use, reproduction and disclosure by the US Government is
 subject to restrictions as set forth in subparagraphs (a)
 and (c) of the Commercial Computer Software - Restricted
 Rights clause in FAR 52.227-19.
  
 Gaussian, Inc.
 340 Quinnipiac St., Bldg. 40, Wallingford CT 06492
  
  
 ---------------------------------------------------------------
 Warning -- This program may not be used in any manner that
 competes with the business of Gaussian, Inc. or will provide
 assistance to any competitor of Gaussian, Inc.  The licensee
 of this program is prohibited from giving any competitor of
 Gaussian, Inc. access to this program.  By using this program,
 the user acknowledges that Gaussian, Inc. is engaged in the
 business of creating and licensing software in the field of
 computational chemistry and represents and warrants to the
 licensee that it is not a competitor of Gaussian, Inc. and that
 it will not use this program in any manner prohibited above.
 ---------------------------------------------------------------
  

 Cite this work as:
 Gaussian 09, Revision B.01,
 M. J. Frisch, G. W. Trucks, H. B. Schlegel, G. E. Scuseria, 
 M. A. Robb, J. R. Cheeseman, G. Scalmani, V. Barone, B. Mennucci, 
 G. A. Petersson, H. Nakatsuji, M. Caricato, X. Li, H. P. Hratchian, 
 A. F. Izmaylov, J. Bloino, G. Zheng, J. L. Sonnenberg, M. Hada, 
 M. Ehara, K. Toyota, R. Fukuda, J. Hasegawa, M. Ishida, T. Nakajima, 
 Y. Honda, O. Kitao, H. Nakai, T. Vreven, J. A. Montgomery, Jr., 
 J. E. Peralta, F. Ogliaro, M. Bearpark, J. J. Heyd, E. Brothers, 
 K. N. Kudin, V. N. Staroverov, T. Keith, R. Kobayashi, J. Normand, 
 K. Raghavachari, A. Rendell, J. C. Burant, S. S. Iyengar, J. Tomasi, 
 M. Cossi, N. Rega, J. M. Millam, M. Klene, J. E. Knox, J. B. Cross, 
 V. Bakken, C. Adamo, J. Jaramillo, R. Gomperts, R. E. Stratmann, 
 O. Yazyev, A. J. Austin, R. Cammi, C. Pomelli, J. W. Ochterski, 
 R. L. Martin, K. Morokuma, V. G. Zakrzewski, G. A. Voth, 
 P. Salvador, J. J. Dannenberg, S. Dapprich, A. D. Daniels, 
 O. Farkas, J. B. Foresman, J. V. Ortiz, J. Cioslowski, 
 and D. J. Fox, Gaussian, Inc., Wallingford CT, 2010.
 
 ******************************************
 Gaussian 09:  IA32W-G09RevB.01 12-Aug-2010
                19-Sep-2023 
 ******************************************
 %nprocshared=6
 Will use up to    6 processors via shared memory.
 %chk=G:\Meu Drive\POS-DOC-IME\SUBSTITUINTES-DOADORES\DPP-substituido\DPP-SUB-5b\
 DPP-SUB-5B-CATION-cont.chk
 ----------------------------------------------------
 # opt=tight freq b3lyp/6-31+g(d,p) geom=connectivity
 ----------------------------------------------------
 1/7=10,14=-1,18=20,19=15,26=3,38=1,57=2/1,3;
 2/9=110,12=2,17=6,18=5,40=1/2;
 3/5=1,6=6,7=111,11=2,16=1,25=1,30=1,71=1,74=-5/1,2,3;
 4//1;
 5/5=2,38=5/2;
 6/7=2,8=2,9=2,10=2,28=1/1;
 7//1,2,3,16;
 1/7=10,14=-1,18=20,19=15/3(2);
 2/9=110/2;
 99//99;
 2/9=110/2;
 3/5=1,6=6,7=111,11=2,16=1,25=1,30=1,71=1,74=-5/1,2,3;
 4/5=5,16=3/1;
 5/5=2,38=5/2;
 7//1,2,3,16;
 1/7=10,14=-1,18=20,19=15/3(-5);
 2/9=110/2;
 6/7=2,8=2,9=2,10=2,19=2,28=1/1;
 99/9=1/99;
 -------
 Energy:
 -------
 Symbolic Z-matrix:
 Charge =  1 Multiplicity = 2
 N                     1.46137  -1.55966  -0.08181 
 C                     0.05867  -1.81145  -0.12619 
 C                     1.7704   -0.21551  -0.10375 
 C                     0.51654   0.46279  -0.14976 
 C                    -0.51654  -0.46279  -0.14976 
 C                    -1.7704    0.21551  -0.10375 
 C                    -0.05867   1.81145  -0.12619 
 N                    -1.46137   1.55966  -0.08181 
 O                    -0.44694  -2.916    -0.14914 
 O                     0.44694   2.916    -0.14914 
 H                    -2.12346   2.31716  -0.17144 
 H                     2.12346  -2.31716  -0.17144 
 C                    -5.39485  -0.64429  -0.01225 
 C                    -4.33454   0.32664   0.12358 
 C                    -4.68082   1.65781   0.44857 
 H                    -3.93389   2.42344   0.62159 
 C                    -6.01842   1.99233   0.59474 
 H                    -6.28056   3.01454   0.84877 
 C                    -7.05479   1.03625   0.43209 
 H                    -8.08682   1.34746   0.55437 
 C                    -6.75897  -0.27631   0.13771 
 C                    -3.07574  -0.31575  -0.07446 
 S                    -3.38638  -2.02291  -0.36283 
 N                    -5.01074  -1.90698  -0.27555 
 C                     5.39485   0.64429  -0.01225 
 C                     4.33454  -0.32664   0.12358 
 C                     4.68082  -1.65781   0.44857 
 H                     3.93389  -2.42344   0.62159 
 C                     6.01842  -1.99233   0.59474 
 H                     6.28056  -3.01454   0.84876 
 C                     7.05479  -1.03625   0.43209 
 H                     8.08682  -1.34746   0.55436 
 C                     6.75897   0.27631   0.13771 
 C                     3.07574   0.31575  -0.07446 
 S                     3.38638   2.02291  -0.36283 
 N                     5.01074   1.90698  -0.27555 
 H                    -7.52583  -1.03457   0.02489 
 H                     7.52584   1.03457   0.02489 
 

 GradGradGradGradGradGradGradGradGradGradGradGradGradGradGradGradGradGrad
 Berny optimization.
 Initialization pass.
                           ----------------------------
                           !    Initial Parameters    !
                           ! (Angstroms and Degrees)  !
 --------------------------                            --------------------------
 ! Name  Definition              Value          Derivative Info.                !
 --------------------------------------------------------------------------------
 ! R1    R(1,2)                  1.4258         estimate D2E/DX2                !
 ! R2    R(1,3)                  1.3794         estimate D2E/DX2                !
 ! R3    R(1,12)                 1.0101         estimate D2E/DX2                !
 ! R4    R(2,5)                  1.4664         estimate D2E/DX2                !
 ! R5    R(2,9)                  1.215          estimate D2E/DX2                !
 ! R6    R(3,4)                  1.4263         estimate D2E/DX2                !
 ! R7    R(3,34)                 1.4096         estimate D2E/DX2                !
 ! R8    R(4,5)                  1.3871         estimate D2E/DX2                !
 ! R9    R(4,7)                  1.4664         estimate D2E/DX2                !
 ! R10   R(5,6)                  1.4263         estimate D2E/DX2                !
 ! R11   R(6,8)                  1.3794         estimate D2E/DX2                !
 ! R12   R(6,22)                 1.4096         estimate D2E/DX2                !
 ! R13   R(7,8)                  1.4258         estimate D2E/DX2                !
 ! R14   R(7,10)                 1.215          estimate D2E/DX2                !
 ! R15   R(8,11)                 1.0101         estimate D2E/DX2                !
 ! R16   R(13,14)                1.4441         estimate D2E/DX2                !
 ! R17   R(13,21)                1.4208         estimate D2E/DX2                !
 ! R18   R(13,24)                1.3458         estimate D2E/DX2                !
 ! R19   R(14,15)                1.4133         estimate D2E/DX2                !
 ! R20   R(14,22)                1.427          estimate D2E/DX2                !
 ! R21   R(15,16)                1.0835         estimate D2E/DX2                !
 ! R22   R(15,17)                1.3865         estimate D2E/DX2                !
 ! R23   R(17,18)                1.0854         estimate D2E/DX2                !
 ! R24   R(17,19)                1.4194         estimate D2E/DX2                !
 ! R25   R(19,20)                1.0848         estimate D2E/DX2                !
 ! R26   R(19,21)                1.3773         estimate D2E/DX2                !
 ! R27   R(21,37)                1.0843         estimate D2E/DX2                !
 ! R28   R(22,23)                1.759          estimate D2E/DX2                !
 ! R29   R(23,24)                1.6308         estimate D2E/DX2                !
 ! R30   R(25,26)                1.4441         estimate D2E/DX2                !
 ! R31   R(25,33)                1.4208         estimate D2E/DX2                !
 ! R32   R(25,36)                1.3458         estimate D2E/DX2                !
 ! R33   R(26,27)                1.4133         estimate D2E/DX2                !
 ! R34   R(26,34)                1.427          estimate D2E/DX2                !
 ! R35   R(27,28)                1.0835         estimate D2E/DX2                !
 ! R36   R(27,29)                1.3865         estimate D2E/DX2                !
 ! R37   R(29,30)                1.0854         estimate D2E/DX2                !
 ! R38   R(29,31)                1.4194         estimate D2E/DX2                !
 ! R39   R(31,32)                1.0848         estimate D2E/DX2                !
 ! R40   R(31,33)                1.3773         estimate D2E/DX2                !
 ! R41   R(33,38)                1.0843         estimate D2E/DX2                !
 ! R42   R(34,35)                1.759          estimate D2E/DX2                !
 ! R43   R(35,36)                1.6308         estimate D2E/DX2                !
 ! A1    A(2,1,3)              113.0784         estimate D2E/DX2                !
 ! A2    A(2,1,12)             120.6426         estimate D2E/DX2                !
 ! A3    A(3,1,12)             125.6287         estimate D2E/DX2                !
 ! A4    A(1,2,5)              102.9433         estimate D2E/DX2                !
 ! A5    A(1,2,9)              124.7869         estimate D2E/DX2                !
 ! A6    A(5,2,9)              132.2662         estimate D2E/DX2                !
 ! A7    A(1,3,4)              105.4842         estimate D2E/DX2                !
 ! A8    A(1,3,34)             125.0567         estimate D2E/DX2                !
 ! A9    A(4,3,34)             129.4575         estimate D2E/DX2                !
 ! A10   A(3,4,5)              109.7191         estimate D2E/DX2                !
 ! A11   A(3,4,7)              141.4157         estimate D2E/DX2                !
 ! A12   A(5,4,7)              108.7575         estimate D2E/DX2                !
 ! A13   A(2,5,4)              108.7575         estimate D2E/DX2                !
 ! A14   A(2,5,6)              141.4157         estimate D2E/DX2                !
 ! A15   A(4,5,6)              109.7191         estimate D2E/DX2                !
 ! A16   A(5,6,8)              105.4842         estimate D2E/DX2                !
 ! A17   A(5,6,22)             129.4575         estimate D2E/DX2                !
 ! A18   A(8,6,22)             125.0567         estimate D2E/DX2                !
 ! A19   A(4,7,8)              102.9433         estimate D2E/DX2                !
 ! A20   A(4,7,10)             132.2662         estimate D2E/DX2                !
 ! A21   A(8,7,10)             124.7869         estimate D2E/DX2                !
 ! A22   A(6,8,7)              113.0784         estimate D2E/DX2                !
 ! A23   A(6,8,11)             125.6287         estimate D2E/DX2                !
 ! A24   A(7,8,11)             120.6426         estimate D2E/DX2                !
 ! A25   A(14,13,21)           121.3909         estimate D2E/DX2                !
 ! A26   A(14,13,24)           116.082          estimate D2E/DX2                !
 ! A27   A(21,13,24)           122.5248         estimate D2E/DX2                !
 ! A28   A(13,14,15)           118.3585         estimate D2E/DX2                !
 ! A29   A(13,14,22)           109.3874         estimate D2E/DX2                !
 ! A30   A(15,14,22)           132.2232         estimate D2E/DX2                !
 ! A31   A(14,15,16)           122.2315         estimate D2E/DX2                !
 ! A32   A(14,15,17)           119.1989         estimate D2E/DX2                !
 ! A33   A(16,15,17)           118.5365         estimate D2E/DX2                !
 ! A34   A(15,17,18)           119.004          estimate D2E/DX2                !
 ! A35   A(15,17,19)           121.9923         estimate D2E/DX2                !
 ! A36   A(18,17,19)           119.002          estimate D2E/DX2                !
 ! A37   A(17,19,20)           119.2396         estimate D2E/DX2                !
 ! A38   A(17,19,21)           120.637          estimate D2E/DX2                !
 ! A39   A(20,19,21)           120.1192         estimate D2E/DX2                !
 ! A40   A(13,21,19)           118.3977         estimate D2E/DX2                !
 ! A41   A(13,21,37)           119.1375         estimate D2E/DX2                !
 ! A42   A(19,21,37)           122.4631         estimate D2E/DX2                !
 ! A43   A(6,22,14)            130.5472         estimate D2E/DX2                !
 ! A44   A(6,22,23)            121.7293         estimate D2E/DX2                !
 ! A45   A(14,22,23)           107.6901         estimate D2E/DX2                !
 ! A46   A(22,23,24)            95.6315         estimate D2E/DX2                !
 ! A47   A(13,24,23)           111.1888         estimate D2E/DX2                !
 ! A48   A(26,25,33)           121.3909         estimate D2E/DX2                !
 ! A49   A(26,25,36)           116.0819         estimate D2E/DX2                !
 ! A50   A(33,25,36)           122.5249         estimate D2E/DX2                !
 ! A51   A(25,26,27)           118.3585         estimate D2E/DX2                !
 ! A52   A(25,26,34)           109.3874         estimate D2E/DX2                !
 ! A53   A(27,26,34)           132.2231         estimate D2E/DX2                !
 ! A54   A(26,27,28)           122.2316         estimate D2E/DX2                !
 ! A55   A(26,27,29)           119.1989         estimate D2E/DX2                !
 ! A56   A(28,27,29)           118.5365         estimate D2E/DX2                !
 ! A57   A(27,29,30)           119.0041         estimate D2E/DX2                !
 ! A58   A(27,29,31)           121.9923         estimate D2E/DX2                !
 ! A59   A(30,29,31)           119.0019         estimate D2E/DX2                !
 ! A60   A(29,31,32)           119.2396         estimate D2E/DX2                !
 ! A61   A(29,31,33)           120.637          estimate D2E/DX2                !
 ! A62   A(32,31,33)           120.1191         estimate D2E/DX2                !
 ! A63   A(25,33,31)           118.3977         estimate D2E/DX2                !
 ! A64   A(25,33,38)           119.1375         estimate D2E/DX2                !
 ! A65   A(31,33,38)           122.4631         estimate D2E/DX2                !
 ! A66   A(3,34,26)            130.5472         estimate D2E/DX2                !
 ! A67   A(3,34,35)            121.7292         estimate D2E/DX2                !
 ! A68   A(26,34,35)           107.6902         estimate D2E/DX2                !
 ! A69   A(34,35,36)            95.6315         estimate D2E/DX2                !
 ! A70   A(25,36,35)           111.1888         estimate D2E/DX2                !
 ! D1    D(3,1,2,5)             -1.2162         estimate D2E/DX2                !
 ! D2    D(3,1,2,9)            178.17           estimate D2E/DX2                !
 ! D3    D(12,1,2,5)          -172.478          estimate D2E/DX2                !
 ! D4    D(12,1,2,9)             6.9082         estimate D2E/DX2                !
 ! D5    D(2,1,3,4)              0.6618         estimate D2E/DX2                !
 ! D6    D(2,1,3,34)          -179.7663         estimate D2E/DX2                !
 ! D7    D(12,1,3,4)           171.408          estimate D2E/DX2                !
 ! D8    D(12,1,3,34)           -9.0201         estimate D2E/DX2                !
 ! D9    D(1,2,5,4)              1.306          estimate D2E/DX2                !
 ! D10   D(1,2,5,6)           -174.2593         estimate D2E/DX2                !
 ! D11   D(9,2,5,4)           -178.0128         estimate D2E/DX2                !
 ! D12   D(9,2,5,6)              6.4219         estimate D2E/DX2                !
 ! D13   D(1,3,4,5)              0.2292         estimate D2E/DX2                !
 ! D14   D(1,3,4,7)            175.7685         estimate D2E/DX2                !
 ! D15   D(34,3,4,5)          -179.3169         estimate D2E/DX2                !
 ! D16   D(34,3,4,7)            -3.7776         estimate D2E/DX2                !
 ! D17   D(1,3,34,26)           -7.5425         estimate D2E/DX2                !
 ! D18   D(1,3,34,35)          170.0824         estimate D2E/DX2                !
 ! D19   D(4,3,34,26)          171.9232         estimate D2E/DX2                !
 ! D20   D(4,3,34,35)          -10.4519         estimate D2E/DX2                !
 ! D21   D(3,4,5,2)             -0.9914         estimate D2E/DX2                !
 ! D22   D(3,4,5,6)            176.0722         estimate D2E/DX2                !
 ! D23   D(7,4,5,2)           -178.055          estimate D2E/DX2                !
 ! D24   D(7,4,5,6)             -0.9914         estimate D2E/DX2                !
 ! D25   D(3,4,7,8)           -174.2594         estimate D2E/DX2                !
 ! D26   D(3,4,7,10)             6.4218         estimate D2E/DX2                !
 ! D27   D(5,4,7,8)              1.306          estimate D2E/DX2                !
 ! D28   D(5,4,7,10)          -178.0128         estimate D2E/DX2                !
 ! D29   D(2,5,6,8)            175.7685         estimate D2E/DX2                !
 ! D30   D(2,5,6,22)            -3.7777         estimate D2E/DX2                !
 ! D31   D(4,5,6,8)              0.2293         estimate D2E/DX2                !
 ! D32   D(4,5,6,22)          -179.3169         estimate D2E/DX2                !
 ! D33   D(5,6,8,7)              0.6617         estimate D2E/DX2                !
 ! D34   D(5,6,8,11)           171.4079         estimate D2E/DX2                !
 ! D35   D(22,6,8,7)          -179.7663         estimate D2E/DX2                !
 ! D36   D(22,6,8,11)           -9.0201         estimate D2E/DX2                !
 ! D37   D(5,6,22,14)          171.9233         estimate D2E/DX2                !
 ! D38   D(5,6,22,23)          -10.4518         estimate D2E/DX2                !
 ! D39   D(8,6,22,14)           -7.5425         estimate D2E/DX2                !
 ! D40   D(8,6,22,23)          170.0823         estimate D2E/DX2                !
 ! D41   D(4,7,8,6)             -1.2162         estimate D2E/DX2                !
 ! D42   D(4,7,8,11)          -172.478          estimate D2E/DX2                !
 ! D43   D(10,7,8,6)           178.17           estimate D2E/DX2                !
 ! D44   D(10,7,8,11)            6.9082         estimate D2E/DX2                !
 ! D45   D(21,13,14,15)          1.7313         estimate D2E/DX2                !
 ! D46   D(21,13,14,22)        179.9525         estimate D2E/DX2                !
 ! D47   D(24,13,14,15)       -177.7276         estimate D2E/DX2                !
 ! D48   D(24,13,14,22)          0.4936         estimate D2E/DX2                !
 ! D49   D(14,13,21,19)         -0.6634         estimate D2E/DX2                !
 ! D50   D(14,13,21,37)        179.8029         estimate D2E/DX2                !
 ! D51   D(24,13,21,19)        178.7602         estimate D2E/DX2                !
 ! D52   D(24,13,21,37)         -0.7736         estimate D2E/DX2                !
 ! D53   D(14,13,24,23)          0.5543         estimate D2E/DX2                !
 ! D54   D(21,13,24,23)       -178.8978         estimate D2E/DX2                !
 ! D55   D(13,14,15,16)        176.4066         estimate D2E/DX2                !
 ! D56   D(13,14,15,17)         -1.4697         estimate D2E/DX2                !
 ! D57   D(22,14,15,16)         -1.3273         estimate D2E/DX2                !
 ! D58   D(22,14,15,17)       -179.2036         estimate D2E/DX2                !
 ! D59   D(13,14,22,6)         176.6678         estimate D2E/DX2                !
 ! D60   D(13,14,22,23)         -1.2119         estimate D2E/DX2                !
 ! D61   D(15,14,22,6)          -5.4462         estimate D2E/DX2                !
 ! D62   D(15,14,22,23)        176.6741         estimate D2E/DX2                !
 ! D63   D(14,15,17,18)        179.7264         estimate D2E/DX2                !
 ! D64   D(14,15,17,19)          0.2076         estimate D2E/DX2                !
 ! D65   D(16,15,17,18)          1.7712         estimate D2E/DX2                !
 ! D66   D(16,15,17,19)       -177.7475         estimate D2E/DX2                !
 ! D67   D(15,17,19,20)       -179.8489         estimate D2E/DX2                !
 ! D68   D(15,17,19,21)          0.9013         estimate D2E/DX2                !
 ! D69   D(18,17,19,20)          0.6323         estimate D2E/DX2                !
 ! D70   D(18,17,19,21)       -178.6175         estimate D2E/DX2                !
 ! D71   D(17,19,21,13)         -0.6464         estimate D2E/DX2                !
 ! D72   D(17,19,21,37)        178.8709         estimate D2E/DX2                !
 ! D73   D(20,19,21,13)       -179.8896         estimate D2E/DX2                !
 ! D74   D(20,19,21,37)         -0.3722         estimate D2E/DX2                !
 ! D75   D(6,22,23,24)        -176.7398         estimate D2E/DX2                !
 ! D76   D(14,22,23,24)          1.366          estimate D2E/DX2                !
 ! D77   D(22,23,24,13)         -1.1125         estimate D2E/DX2                !
 ! D78   D(33,25,26,27)          1.7312         estimate D2E/DX2                !
 ! D79   D(33,25,26,34)        179.9525         estimate D2E/DX2                !
 ! D80   D(36,25,26,27)       -177.7275         estimate D2E/DX2                !
 ! D81   D(36,25,26,34)          0.4937         estimate D2E/DX2                !
 ! D82   D(26,25,33,31)         -0.6633         estimate D2E/DX2                !
 ! D83   D(26,25,33,38)        179.8029         estimate D2E/DX2                !
 ! D84   D(36,25,33,31)        178.7601         estimate D2E/DX2                !
 ! D85   D(36,25,33,38)         -0.7736         estimate D2E/DX2                !
 ! D86   D(26,25,36,35)          0.5542         estimate D2E/DX2                !
 ! D87   D(33,25,36,35)       -178.8978         estimate D2E/DX2                !
 ! D88   D(25,26,27,28)        176.4066         estimate D2E/DX2                !
 ! D89   D(25,26,27,29)         -1.4696         estimate D2E/DX2                !
 ! D90   D(34,26,27,28)         -1.3273         estimate D2E/DX2                !
 ! D91   D(34,26,27,29)       -179.2036         estimate D2E/DX2                !
 ! D92   D(25,26,34,3)         176.6677         estimate D2E/DX2                !
 ! D93   D(25,26,34,35)         -1.212          estimate D2E/DX2                !
 ! D94   D(27,26,34,3)          -5.4462         estimate D2E/DX2                !
 ! D95   D(27,26,34,35)        176.6741         estimate D2E/DX2                !
 ! D96   D(26,27,29,30)        179.7265         estimate D2E/DX2                !
 ! D97   D(26,27,29,31)          0.2076         estimate D2E/DX2                !
 ! D98   D(28,27,29,30)          1.7713         estimate D2E/DX2                !
 ! D99   D(28,27,29,31)       -177.7476         estimate D2E/DX2                !
 ! D100  D(27,29,31,32)       -179.8489         estimate D2E/DX2                !
 ! D101  D(27,29,31,33)          0.9014         estimate D2E/DX2                !
 ! D102  D(30,29,31,32)          0.6322         estimate D2E/DX2                !
 ! D103  D(30,29,31,33)       -178.6175         estimate D2E/DX2                !
 ! D104  D(29,31,33,25)         -0.6464         estimate D2E/DX2                !
 ! D105  D(29,31,33,38)        178.8709         estimate D2E/DX2                !
 ! D106  D(32,31,33,25)       -179.8896         estimate D2E/DX2                !
 ! D107  D(32,31,33,38)         -0.3723         estimate D2E/DX2                !
 ! D108  D(3,34,35,36)        -176.7398         estimate D2E/DX2                !
 ! D109  D(26,34,35,36)          1.3661         estimate D2E/DX2                !
 ! D110  D(34,35,36,25)         -1.1124         estimate D2E/DX2                !
 --------------------------------------------------------------------------------
 Trust Radius=3.00D-01 FncErr=1.00D-07 GrdErr=1.00D-06
 Number of steps in this run=    228 maximum allowed number of steps=    228.
 GradGradGradGradGradGradGradGradGradGradGradGradGradGradGradGradGradGrad

                          Input orientation:                          
 ---------------------------------------------------------------------
 Center     Atomic      Atomic             Coordinates (Angstroms)
 Number     Number       Type             X           Y           Z
 ---------------------------------------------------------------------
      1          7           0        1.461368   -1.559663   -0.081812
      2          6           0        0.058669   -1.811451   -0.126194
      3          6           0        1.770402   -0.215508   -0.103746
      4          6           0        0.516539    0.462787   -0.149758
      5          6           0       -0.516539   -0.462787   -0.149759
      6          6           0       -1.770402    0.215508   -0.103745
      7          6           0       -0.058669    1.811451   -0.126191
      8          7           0       -1.461368    1.559663   -0.081810
      9          8           0       -0.446938   -2.916002   -0.149140
     10          8           0        0.446938    2.916002   -0.149136
     11          1           0       -2.123463    2.317161   -0.171442
     12          1           0        2.123463   -2.317160   -0.171444
     13          6           0       -5.394849   -0.644293   -0.012250
     14          6           0       -4.334537    0.326643    0.123583
     15          6           0       -4.680823    1.657812    0.448571
     16          1           0       -3.933889    2.423442    0.621593
     17          6           0       -6.018420    1.992327    0.594741
     18          1           0       -6.280563    3.014541    0.848765
     19          6           0       -7.054787    1.036248    0.432091
     20          1           0       -8.086818    1.347460    0.554365
     21          6           0       -6.758969   -0.276306    0.137710
     22          6           0       -3.075743   -0.315751   -0.074463
     23         16           0       -3.386375   -2.022911   -0.362829
     24          7           0       -5.010740   -1.906979   -0.275551
     25          6           0        5.394850    0.644293   -0.012250
     26          6           0        4.334537   -0.326643    0.123583
     27          6           0        4.680822   -1.657813    0.448570
     28          1           0        3.933889   -2.423442    0.621591
     29          6           0        6.018419   -1.992328    0.594740
     30          1           0        6.280563   -3.014542    0.848762
     31          6           0        7.054787   -1.036249    0.432090
     32          1           0        8.086817   -1.347461    0.554363
     33          6           0        6.758969    0.276306    0.137710
     34          6           0        3.075744    0.315751   -0.074463
     35         16           0        3.386375    2.022911   -0.362827
     36          7           0        5.010740    1.906979   -0.275549
     37          1           0       -7.525834   -1.034569    0.024889
     38          1           0        7.525835    1.034568    0.024890
 ---------------------------------------------------------------------
                    Distance matrix (angstroms):
                    1          2          3          4          5
     1  N    0.000000
     2  C    1.425809   0.000000
     3  C    1.379397   2.340420   0.000000
     4  C    2.233299   2.319991   1.426315   0.000000
     5  C    2.262713   1.466395   2.300731   1.387061   0.000000
     6  C    3.687282   2.730305   3.566941   2.300731   1.426315
     7  C    3.698228   3.624802   2.730305   1.466395   2.319991
     8  N    4.274644   3.698228   3.687282   2.262713   2.233299
     9  O    2.342183   1.214989   3.494471   3.513475   2.454202
    10  O    4.589682   4.743426   3.399996   2.454202   3.513475
    11  H    5.280986   4.670030   4.645555   3.226265   3.211041
    12  H    1.010052   2.126303   2.132176   3.211040   3.226264
    13  C    6.917402   5.578181   7.178652   6.015733   4.883622
    14  C    6.098594   4.892248   6.133179   4.860678   3.908328
    15  C    6.954133   5.901604   6.740377   5.366438   4.711284
    16  H    6.743048   5.868051   6.326856   4.923968   4.539117
    17  C    8.307923   7.205518   8.125772   6.752737   6.070631
    18  H    9.040288   8.026619   8.726886   7.328649   6.805353
    19  C    8.917833   7.682599   8.929612   7.615273   6.733078
    20  H   10.001197   8.763038  10.002038   8.677338   7.815492
    21  C    8.322808   6.993318   8.533005   7.318600   6.251827
    22  C    4.704545   3.473375   4.847270   3.676449   2.564530
    23  S    4.877928   3.459630   5.470482   4.632152   3.273430
    24  N    6.484315   5.072508   6.991028   6.015183   4.722219
    25  C    4.509384   5.875244   3.726158   4.883623   6.015734
    26  C    3.133309   4.533221   2.576590   3.908327   4.860678
    27  C    3.264326   4.660285   3.294820   4.711284   5.366437
    28  H    2.711872   3.993876   3.175179   4.539116   4.923968
    29  C    4.627271   6.005921   4.657319   6.070630   6.752737
    30  H    5.119305   6.411703   5.392904   6.805353   7.328649
    31  C    5.641311   7.061040   5.374520   6.733078   7.615273
    32  H    6.659303   8.070291   6.450699   7.815491   8.677337
    33  C    5.611020   7.022990   5.018564   6.251827   7.318601
    34  C    2.474559   3.691938   1.409614   2.564531   3.676450
    35  S    4.076697   5.082515   2.772907   3.273430   4.632152
    36  N    4.965197   6.194517   3.877403   4.722219   6.015183
    37  H    9.003161   7.625684   9.333135   8.182441   7.034746
    38  H    6.596907   7.992573   5.891031   7.034747   8.182442
                    6          7          8          9         10
     6  C    0.000000
     7  C    2.340420   0.000000
     8  N    1.379397   1.425809   0.000000
     9  O    3.399996   4.743426   4.589682   0.000000
    10  O    3.494471   1.214989   2.342183   5.900109   0.000000
    11  H    2.132177   2.126303   1.010053   5.495200   2.639331
    12  H    4.645554   4.670030   5.280985   2.639331   5.495200
    13  C    3.726157   5.875243   4.509383   5.446212   6.842581
    14  C    2.576590   4.533221   3.133309   5.069768   5.444415
    15  C    3.294821   4.660286   3.264327   6.261215   5.313589
    16  H    3.175179   3.993876   2.711872   6.423591   4.475297
    17  C    4.657320   6.005921   4.627272   7.462336   6.573232
    18  H    5.392904   6.411703   5.119305   8.378445   6.801822
    19  C    5.374519   7.061040   5.641311   7.721514   7.755461
    20  H    6.450700   8.070292   6.659305   8.777232   8.705184
    21  C    5.018564   7.022990   5.611020   6.847774   7.886584
    22  C    1.409613   3.691937   2.474558   3.698310   4.781118
    23  S    2.772907   5.082515   4.076697   3.079540   6.255623
    24  N    3.877404   6.194517   4.965197   4.675724   7.284461
    25  C    7.178653   5.578182   6.917403   6.842582   5.446213
    26  C    6.133179   4.892248   6.098594   5.444416   5.069768
    27  C    6.740376   5.901603   6.954132   5.313588   6.261215
    28  H    6.326856   5.868050   6.743048   4.475297   6.423590
    29  C    8.125771   7.205517   8.307922   6.573231   7.462336
    30  H    8.726885   8.026618   9.040288   6.801822   8.378445
    31  C    8.929612   7.682599   8.917833   7.755461   7.721514
    32  H   10.002037   8.763037  10.001196   8.705183   8.777231
    33  C    8.533005   6.993318   8.322808   7.886584   6.847774
    34  C    4.847271   3.473376   4.704546   4.781118   3.698311
    35  S    5.470482   3.459630   4.877928   6.255622   3.079540
    36  N    6.991028   5.072508   6.484315   7.284461   4.675724
    37  H    5.891030   7.992572   6.596906   7.326721   8.899572
    38  H    9.333136   7.625685   9.003162   8.899573   7.326722
                   11         12         13         14         15
    11  H    0.000000
    12  H    6.285961   0.000000
    13  C    4.415599   7.703820   0.000000
    14  C    2.989657   6.984447   1.444101   0.000000
    15  C    2.712793   7.904627   2.453951   1.413344   0.000000
    16  H    1.979354   7.732640   3.456466   2.192054   1.083530
    17  C    3.982869   9.243862   2.776517   2.414944   1.386518
    18  H    4.336893  10.004775   3.861723   3.396719   2.135424
    19  C    5.130589   9.790295   2.403550   2.828158   2.454041
    20  H    6.085123  10.872262   3.396296   3.912448   3.421741
    21  C    5.320673   9.119115   1.420819   2.498323   2.855895
    22  C    2.801512   5.571964   2.343088   1.427044   2.597075
    23  S    4.524135   5.521008   2.461191   2.579925   3.985183
    24  N    5.117672   7.146743   1.345824   2.367620   3.652524
    25  C    7.703821   4.415600  10.866373   9.735519  10.137000
    26  C    6.984447   2.989657   9.735518   8.693654   9.236904
    27  C    7.904627   2.712792  10.136998   9.236903   9.931453
    28  H    7.732641   1.979354   9.518008   8.727992   9.534140
    29  C    9.243861   3.982868  11.508619  10.619949  11.305692
    30  H   10.004775   4.336893  11.944650  11.152119  11.922375
    31  C    9.790295   5.130589  12.463728  11.474727  12.040879
    32  H   10.872261   6.085121  13.511877  12.541062  13.116992
    33  C    9.119115   5.320673  12.189556  11.093629  11.527100
    34  C    5.571966   2.801511   8.525051   7.412935   7.889171
    35  S    5.521008   4.524134   9.184050   7.920000   8.116117
    36  N    7.146743   5.117671  10.717024   9.486357   9.721771
    37  H    6.360680   9.736145   2.166747   3.470881   3.939862
    38  H    9.736146   6.360680  13.029353  11.881891  12.229899
                   16         17         18         19         20
    16  H    0.000000
    17  C    2.128814   0.000000
    18  H    2.430614   1.085435   0.000000
    19  C    3.420559   1.419366   2.164875   0.000000
    20  H    4.290580   2.166969   2.475558   1.084846   0.000000
    21  C    3.937494   2.429812   3.400610   1.377304   2.138551
    22  C    2.953657   3.799264   4.713180   4.232882   5.317196
    23  S    4.586820   4.895583   5.934661   4.842272   5.856177
    24  N    4.551595   4.120366   5.205564   3.652598   4.554381
    25  C    9.518009  11.508621  11.944651  12.463729  13.511879
    26  C    8.727992  10.619950  11.152119  11.474727  12.541063
    27  C    9.534140  11.305692  11.922374  12.040878  13.116992
    28  H    9.240899  10.887984  11.574035  11.521995  12.598477
    29  C   10.887983  12.679234  13.281499  13.420411  14.495293
    30  H   11.574036  13.281500  13.933116  13.943245  15.017835
    31  C   11.521995  13.420412  13.943245  14.260972  15.328575
    32  H   12.598476  14.495293  15.017834  15.328574  16.396618
    33  C   10.917030  12.900204  13.342898  13.837775  14.890210
    34  C    7.352674   9.271600   9.781426  10.168745  11.227762
    35  S    7.397011   9.453467   9.792904  10.517759  11.529598
    36  N    9.004331  11.063772  11.401066  12.117585  13.135747
    37  H    5.021550   3.429158   4.315642   2.162402   2.503819
    38  H   11.558992  13.590029  13.971961  14.586307  15.624762
                   21         22         23         24         25
    21  C    0.000000
    22  C    3.689543   0.000000
    23  S    3.830869   1.758989   0.000000
    24  N    2.426146   2.513296   1.630834   0.000000
    25  C   12.189557   8.525051   9.184051  10.717025   0.000000
    26  C   11.093629   7.412934   7.920000   9.486357   1.444102
    27  C   11.527099   7.889169   8.116116   9.721770   2.453953
    28  H   10.917030   7.352673   7.397011   9.004331   3.456466
    29  C   12.900204   9.271598   9.453466  11.063771   2.776517
    30  H   13.342898   9.781425   9.792904  11.401066   3.861723
    31  C   13.837775  10.168744  10.517759  12.117585   2.403550
    32  H   14.890209  11.227760  11.529597  13.135746   3.396295
    33  C   13.529229   9.854801  10.414650  11.977628   1.420818
    34  C    9.854802   6.183817   6.878334   8.388813   2.343088
    35  S   10.414650   6.878333   7.889158   9.271634   2.461192
    36  N   11.977628   8.388812   9.271634  10.722702   1.345824
    37  H    1.084331   4.508867   4.273437   2.679004  13.029353
    38  H   14.345269  10.687689  11.339084  12.880554   2.166747
                   26         27         28         29         30
    26  C    0.000000
    27  C    1.413345   0.000000
    28  H    2.192053   1.083528   0.000000
    29  C    2.414944   1.386518   2.128813   0.000000
    30  H    3.396719   2.135425   2.430614   1.085435   0.000000
    31  C    2.828158   2.454042   3.420558   1.419366   2.164874
    32  H    3.912448   3.421741   4.290579   2.166969   2.475557
    33  C    2.498323   2.855897   3.937494   2.429813   3.400610
    34  C    1.427043   2.597074   2.953656   3.799263   4.713179
    35  S    2.579924   3.985183   4.586819   4.895583   5.934661
    36  N    2.367620   3.652525   4.551595   4.120366   5.205564
    37  H   11.881890  12.229897  11.558991  13.590027  13.971960
    38  H    3.470882   3.939863   5.021550   3.429159   4.315641
                   31         32         33         34         35
    31  C    0.000000
    32  H    1.084845   0.000000
    33  C    1.377305   2.138551   0.000000
    34  C    4.232881   5.317194   3.689542   0.000000
    35  S    4.842272   5.856176   3.830869   1.758989   0.000000
    36  N    3.652598   4.554381   2.426146   2.513295   1.630834
    37  H   14.586306  15.624760  14.345268  10.687689  11.339083
    38  H    2.162402   2.503818   1.084331   4.508867   4.273438
                   36         37         38
    36  N    0.000000
    37  H   12.880553   0.000000
    38  H    2.679005  15.193224   0.000000
 Stoichiometry    C20H10N4O2S2(1+,2)
 Framework group  C1[X(C20H10N4O2S2)]
 Deg. of freedom   108
 Full point group                 C1      NOp   1
 Largest Abelian subgroup         C1      NOp   1
 Largest concise Abelian subgroup C1      NOp   1
                         Standard orientation:                         
 ---------------------------------------------------------------------
 Center     Atomic      Atomic             Coordinates (Angstroms)
 Number     Number       Type             X           Y           Z
 ---------------------------------------------------------------------
      1          7           0       -1.461368    1.559663   -0.081812
      2          6           0       -0.058669    1.811451   -0.126194
      3          6           0       -1.770402    0.215508   -0.103746
      4          6           0       -0.516539   -0.462787   -0.149758
      5          6           0        0.516539    0.462787   -0.149759
      6          6           0        1.770402   -0.215508   -0.103745
      7          6           0        0.058669   -1.811451   -0.126191
      8          7           0        1.461368   -1.559663   -0.081810
      9          8           0        0.446938    2.916002   -0.149140
     10          8           0       -0.446938   -2.916002   -0.149136
     11          1           0        2.123463   -2.317161   -0.171442
     12          1           0       -2.123463    2.317160   -0.171444
     13          6           0        5.394849    0.644293   -0.012250
     14          6           0        4.334537   -0.326643    0.123583
     15          6           0        4.680823   -1.657812    0.448571
     16          1           0        3.933889   -2.423442    0.621593
     17          6           0        6.018420   -1.992327    0.594741
     18          1           0        6.280563   -3.014541    0.848765
     19          6           0        7.054787   -1.036248    0.432091
     20          1           0        8.086818   -1.347460    0.554365
     21          6           0        6.758969    0.276306    0.137710
     22          6           0        3.075743    0.315751   -0.074463
     23         16           0        3.386375    2.022911   -0.362829
     24          7           0        5.010740    1.906979   -0.275551
     25          6           0       -5.394850   -0.644293   -0.012250
     26          6           0       -4.334537    0.326643    0.123583
     27          6           0       -4.680822    1.657813    0.448570
     28          1           0       -3.933889    2.423442    0.621591
     29          6           0       -6.018419    1.992328    0.594740
     30          1           0       -6.280563    3.014542    0.848762
     31          6           0       -7.054787    1.036249    0.432090
     32          1           0       -8.086817    1.347461    0.554363
     33          6           0       -6.758969   -0.276306    0.137710
     34          6           0       -3.075744   -0.315751   -0.074463
     35         16           0       -3.386375   -2.022911   -0.362827
     36          7           0       -5.010740   -1.906979   -0.275549
     37          1           0        7.525834    1.034569    0.024889
     38          1           0       -7.525835   -1.034568    0.024890
 ---------------------------------------------------------------------
 Rotational constants (GHZ):      0.4711770      0.0717077      0.0627657
 Standard basis: 6-31+G(d,p) (6D, 7F)
 There are   590 symmetry adapted basis functions of A   symmetry.
 Integral buffers will be    262144 words long.
 Raffenetti 2 integral format.
 Two-electron integral symmetry is turned on.
   590 basis functions,  1014 primitive gaussians,   590 cartesian basis functions
   103 alpha electrons      102 beta electrons
       nuclear repulsion energy      2640.8110624585 Hartrees.
 NAtoms=   38 NActive=   38 NUniq=   38 SFac= 1.00D+00 NAtFMM=   50 NAOKFM=F Big=F
 One-electron integrals computed using PRISM.
 NBasis=   590 RedAO= T  NBF=   590
 NBsUse=   582 1.00D-06 NBFU=   582
 Harris functional with IExCor=  402 diagonalized for initial guess.
 ExpMin= 4.05D-02 ExpMax= 2.19D+04 ExpMxC= 3.30D+03 IAcc=2 IRadAn=         0 AccDes= 0.00D+00
 HarFok:  IExCor=  402 AccDes= 0.00D+00 IRadAn=         0 IDoV= 1
 ScaDFX=  1.000000  1.000000  1.000000  1.000000
 FoFCou: FMM=F IPFlag=           0 FMFlag=      100000 FMFlg1=           0
         NFxFlg=           0 DoJE=T BraDBF=F KetDBF=T FulRan=T
         Omega=  0.000000  0.000000  1.000000  0.000000  0.000000 ICntrl=     500 IOpCl=  0
         NMat0=    1 NMatS0=    1 NMatT0=    0 NMatD0=    1 NMtDS0=    0 NMtDT0=    0
         I1Cent=           4 NGrid=           0.
 Petite list used in FoFCou.
 DSYEVD returned Info=      255353 IAlg= 4 N=   582 NDim=   582 NE2=       56452 trying DSYEV.
 Initial guess orbital symmetries:
 Alpha Orbitals:
       Occupied  (A) (A) (A) (A) (A) (A) (A) (A) (A) (A) (A) (A)
                 (A) (A) (A) (A) (A) (A) (A) (A) (A) (A) (A) (A)
                 (A) (A) (A) (A) (A) (A) (A) (A) (A) (A) (A) (A)
                 (A) (A) (A) (A) (A) (A) (A) (A) (A) (A) (A) (A)
                 (A) (A) (A) (A) (A) (A) (A) (A) (A) (A) (A) (A)
                 (A) (A) (A) (A) (A) (A) (A) (A) (A) (A) (A) (A)
                 (A) (A) (A) (A) (A) (A) (A) (A) (A) (A) (A) (A)
                 (A) (A) (A) (A) (A) (A) (A) (A) (A) (A) (A) (A)
                 (A) (A) (A) (A) (A) (A) (A)
       Virtual   (A) (A) (A) (A) (A) (A) (A) (A) (A) (A) (A) (A)
                 (A) (A) (A) (A) (A) (A) (A) (A) (A) (A) (A) (A)
                 (A) (A) (A) (A) (A) (A) (A) (A) (A) (A) (A) (A)
                 (A) (A) (A) (A) (A) (A) (A) (A) (A) (A) (A) (A)
                 (A) (A) (A) (A) (A) (A) (A) (A) (A) (A) (A) (A)
                 (A) (A) (A) (A) (A) (A) (A) (A) (A) (A) (A) (A)
                 (A) (A) (A) (A) (A) (A) (A) (A) (A) (A) (A) (A)
                 (A) (A) (A) (A) (A) (A) (A) (A) (A) (A) (A) (A)
                 (A) (A) (A) (A) (A) (A) (A) (A) (A) (A) (A) (A)
                 (A) (A) (A) (A) (A) (A) (A) (A) (A) (A) (A) (A)
                 (A) (A) (A) (A) (A) (A) (A) (A) (A) (A) (A) (A)
                 (A) (A) (A) (A) (A) (A) (A) (A) (A) (A) (A) (A)
                 (A) (A) (A) (A) (A) (A) (A) (A) (A) (A) (A) (A)
                 (A) (A) (A) (A) (A) (A) (A) (A) (A) (A) (A) (A)
                 (A) (A) (A) (A) (A) (A) (A) (A) (A) (A) (A) (A)
                 (A) (A) (A) (A) (A) (A) (A) (A) (A) (A) (A) (A)
                 (A) (A) (A) (A) (A) (A) (A) (A) (A) (A) (A) (A)
                 (A) (A) (A) (A) (A) (A) (A) (A) (A) (A) (A) (A)
                 (A) (A) (A) (A) (A) (A) (A) (A) (A) (A) (A) (A)
                 (A) (A) (A) (A) (A) (A) (A) (A) (A) (A) (A) (A)
                 (A) (A) (A) (A) (A) (A) (A) (A) (A) (A) (A) (A)
                 (A) (A) (A) (A) (A) (A) (A) (A) (A) (A) (A) (A)
                 (A) (A) (A) (A) (A) (A) (A) (A) (A) (A) (A) (A)
                 (A) (A) (A) (A) (A) (A) (A) (A) (A) (A) (A) (A)
                 (A) (A) (A) (A) (A) (A) (A) (A) (A) (A) (A) (A)
                 (A) (A) (A) (A) (A) (A) (A) (A) (A) (A) (A) (A)
                 (A) (A) (A) (A) (A) (A) (A) (A) (A) (A) (A) (A)
                 (A) (A) (A) (A) (A) (A) (A) (A) (A) (A) (A) (A)
                 (A) (A) (A) (A) (A) (A) (A) (A) (A) (A) (A) (A)
                 (A) (A) (A) (A) (A) (A) (A) (A) (A) (A) (A) (A)
                 (A) (A) (A) (A) (A) (A) (A) (A) (A) (A) (A) (A)
                 (A) (A) (A) (A) (A) (A) (A) (A) (A) (A) (A) (A)
                 (A) (A) (A) (A) (A) (A) (A) (A) (A) (A) (A) (A)
                 (A) (A) (A) (A) (A) (A) (A) (A) (A) (A) (A) (A)
                 (A) (A) (A) (A) (A) (A) (A) (A) (A) (A) (A) (A)
                 (A) (A) (A) (A) (A) (A) (A) (A) (A) (A) (A) (A)
                 (A) (A) (A) (A) (A) (A) (A) (A) (A) (A) (A) (A)
                 (A) (A) (A) (A) (A) (A) (A) (A) (A) (A) (A) (A)
                 (A) (A) (A) (A) (A) (A) (A) (A) (A) (A) (A) (A)
                 (A) (A) (A) (A) (A) (A) (A) (A) (A) (A) (A)
 Beta  Orbitals:
       Occupied  (A) (A) (A) (A) (A) (A) (A) (A) (A) (A) (A) (A)
                 (A) (A) (A) (A) (A) (A) (A) (A) (A) (A) (A) (A)
                 (A) (A) (A) (A) (A) (A) (A) (A) (A) (A) (A) (A)
                 (A) (A) (A) (A) (A) (A) (A) (A) (A) (A) (A) (A)
                 (A) (A) (A) (A) (A) (A) (A) (A) (A) (A) (A) (A)
                 (A) (A) (A) (A) (A) (A) (A) (A) (A) (A) (A) (A)
                 (A) (A) (A) (A) (A) (A) (A) (A) (A) (A) (A) (A)
                 (A) (A) (A) (A) (A) (A) (A) (A) (A) (A) (A) (A)
                 (A) (A) (A) (A) (A) (A)
       Virtual   (A) (A) (A) (A) (A) (A) (A) (A) (A) (A) (A) (A)
                 (A) (A) (A) (A) (A) (A) (A) (A) (A) (A) (A) (A)
                 (A) (A) (A) (A) (A) (A) (A) (A) (A) (A) (A) (A)
                 (A) (A) (A) (A) (A) (A) (A) (A) (A) (A) (A) (A)
                 (A) (A) (A) (A) (A) (A) (A) (A) (A) (A) (A) (A)
                 (A) (A) (A) (A) (A) (A) (A) (A) (A) (A) (A) (A)
                 (A) (A) (A) (A) (A) (A) (A) (A) (A) (A) (A) (A)
                 (A) (A) (A) (A) (A) (A) (A) (A) (A) (A) (A) (A)
                 (A) (A) (A) (A) (A) (A) (A) (A) (A) (A) (A) (A)
                 (A) (A) (A) (A) (A) (A) (A) (A) (A) (A) (A) (A)
                 (A) (A) (A) (A) (A) (A) (A) (A) (A) (A) (A) (A)
                 (A) (A) (A) (A) (A) (A) (A) (A) (A) (A) (A) (A)
                 (A) (A) (A) (A) (A) (A) (A) (A) (A) (A) (A) (A)
                 (A) (A) (A) (A) (A) (A) (A) (A) (A) (A) (A) (A)
                 (A) (A) (A) (A) (A) (A) (A) (A) (A) (A) (A) (A)
                 (A) (A) (A) (A) (A) (A) (A) (A) (A) (A) (A) (A)
                 (A) (A) (A) (A) (A) (A) (A) (A) (A) (A) (A) (A)
                 (A) (A) (A) (A) (A) (A) (A) (A) (A) (A) (A) (A)
                 (A) (A) (A) (A) (A) (A) (A) (A) (A) (A) (A) (A)
                 (A) (A) (A) (A) (A) (A) (A) (A) (A) (A) (A) (A)
                 (A) (A) (A) (A) (A) (A) (A) (A) (A) (A) (A) (A)
                 (A) (A) (A) (A) (A) (A) (A) (A) (A) (A) (A) (A)
                 (A) (A) (A) (A) (A) (A) (A) (A) (A) (A) (A) (A)
                 (A) (A) (A) (A) (A) (A) (A) (A) (A) (A) (A) (A)
                 (A) (A) (A) (A) (A) (A) (A) (A) (A) (A) (A) (A)
                 (A) (A) (A) (A) (A) (A) (A) (A) (A) (A) (A) (A)
                 (A) (A) (A) (A) (A) (A) (A) (A) (A) (A) (A) (A)
                 (A) (A) (A) (A) (A) (A) (A) (A) (A) (A) (A) (A)
                 (A) (A) (A) (A) (A) (A) (A) (A) (A) (A) (A) (A)
                 (A) (A) (A) (A) (A) (A) (A) (A) (A) (A) (A) (A)
                 (A) (A) (A) (A) (A) (A) (A) (A) (A) (A) (A) (A)
                 (A) (A) (A) (A) (A) (A) (A) (A) (A) (A) (A) (A)
                 (A) (A) (A) (A) (A) (A) (A) (A) (A) (A) (A) (A)
                 (A) (A) (A) (A) (A) (A) (A) (A) (A) (A) (A) (A)
                 (A) (A) (A) (A) (A) (A) (A) (A) (A) (A) (A) (A)
                 (A) (A) (A) (A) (A) (A) (A) (A) (A) (A) (A) (A)
                 (A) (A) (A) (A) (A) (A) (A) (A) (A) (A) (A) (A)
                 (A) (A) (A) (A) (A) (A) (A) (A) (A) (A) (A) (A)
                 (A) (A) (A) (A) (A) (A) (A) (A) (A) (A) (A) (A)
                 (A) (A) (A) (A) (A) (A) (A) (A) (A) (A) (A) (A)
 The electronic state of the initial guess is 2-A.
 Initial guess <Sx>= 0.0000 <Sy>= 0.0000 <Sz>= 0.5000 <S**2>= 0.7500 S= 0.5000
 Requested convergence on RMS density matrix=1.00D-08 within 128 cycles.
 Requested convergence on MAX density matrix=1.00D-06.
 Requested convergence on             energy=1.00D-06.
 No special actions if energy rises.
 EnCoef did     4 forward-backward iterations
 Restarting incremental Fock formation.
 DSYEVD returned Info=      297912 IAlg= 4 N=   582 NDim=   582 NE2=       55278 trying DSYEV.
 SCF Done:  E(UB3LYP) =  -1933.77634943     A.U. after   33 cycles
             Convg  =    0.8017D-08             -V/T =  2.0069
 <Sx>= 0.0000 <Sy>= 0.0000 <Sz>= 0.5000 <S**2>= 0.7723 S= 0.5111
 <L.S>= 0.000000000000E+00
 Annihilation of the first spin contaminant:
 S**2 before annihilation     0.7723,   after     0.7504

 **********************************************************************

            Population analysis using the SCF density.

 **********************************************************************

 Orbital symmetries:
 Alpha Orbitals:
       Occupied  (A) (A) (A) (A) (A) (A) (A) (A) (A) (A) (A) (A)
                 (A) (A) (A) (A) (A) (A) (A) (A) (A) (A) (A) (A)
                 (A) (A) (A) (A) (A) (A) (A) (A) (A) (A) (A) (A)
                 (A) (A) (A) (A) (A) (A) (A) (A) (A) (A) (A) (A)
                 (A) (A) (A) (A) (A) (A) (A) (A) (A) (A) (A) (A)
                 (A) (A) (A) (A) (A) (A) (A) (A) (A) (A) (A) (A)
                 (A) (A) (A) (A) (A) (A) (A) (A) (A) (A) (A) (A)
                 (A) (A) (A) (A) (A) (A) (A) (A) (A) (A) (A) (A)
                 (A) (A) (A) (A) (A) (A) (A)
       Virtual   (A) (A) (A) (A) (A) (A) (A) (A) (A) (A) (A) (A)
                 (A) (A) (A) (A) (A) (A) (A) (A) (A) (A) (A) (A)
                 (A) (A) (A) (A) (A) (A) (A) (A) (A) (A) (A) (A)
                 (A) (A) (A) (A) (A) (A) (A) (A) (A) (A) (A) (A)
                 (A) (A) (A) (A) (A) (A) (A) (A) (A) (A) (A) (A)
                 (A) (A) (A) (A) (A) (A) (A) (A) (A) (A) (A) (A)
                 (A) (A) (A) (A) (A) (A) (A) (A) (A) (A) (A) (A)
                 (A) (A) (A) (A) (A) (A) (A) (A) (A) (A) (A) (A)
                 (A) (A) (A) (A) (A) (A) (A) (A) (A) (A) (A) (A)
                 (A) (A) (A) (A) (A) (A) (A) (A) (A) (A) (A) (A)
                 (A) (A) (A) (A) (A) (A) (A) (A) (A) (A) (A) (A)
                 (A) (A) (A) (A) (A) (A) (A) (A) (A) (A) (A) (A)
                 (A) (A) (A) (A) (A) (A) (A) (A) (A) (A) (A) (A)
                 (A) (A) (A) (A) (A) (A) (A) (A) (A) (A) (A) (A)
                 (A) (A) (A) (A) (A) (A) (A) (A) (A) (A) (A) (A)
                 (A) (A) (A) (A) (A) (A) (A) (A) (A) (A) (A) (A)
                 (A) (A) (A) (A) (A) (A) (A) (A) (A) (A) (A) (A)
                 (A) (A) (A) (A) (A) (A) (A) (A) (A) (A) (A) (A)
                 (A) (A) (A) (A) (A) (A) (A) (A) (A) (A) (A) (A)
                 (A) (A) (A) (A) (A) (A) (A) (A) (A) (A) (A) (A)
                 (A) (A) (A) (A) (A) (A) (A) (A) (A) (A) (A) (A)
                 (A) (A) (A) (A) (A) (A) (A) (A) (A) (A) (A) (A)
                 (A) (A) (A) (A) (A) (A) (A) (A) (A) (A) (A) (A)
                 (A) (A) (A) (A) (A) (A) (A) (A) (A) (A) (A) (A)
                 (A) (A) (A) (A) (A) (A) (A) (A) (A) (A) (A) (A)
                 (A) (A) (A) (A) (A) (A) (A) (A) (A) (A) (A) (A)
                 (A) (A) (A) (A) (A) (A) (A) (A) (A) (A) (A) (A)
                 (A) (A) (A) (A) (A) (A) (A) (A) (A) (A) (A) (A)
                 (A) (A) (A) (A) (A) (A) (A) (A) (A) (A) (A) (A)
                 (A) (A) (A) (A) (A) (A) (A) (A) (A) (A) (A) (A)
                 (A) (A) (A) (A) (A) (A) (A) (A) (A) (A) (A) (A)
                 (A) (A) (A) (A) (A) (A) (A) (A) (A) (A) (A) (A)
                 (A) (A) (A) (A) (A) (A) (A) (A) (A) (A) (A) (A)
                 (A) (A) (A) (A) (A) (A) (A) (A) (A) (A) (A) (A)
                 (A) (A) (A) (A) (A) (A) (A) (A) (A) (A) (A) (A)
                 (A) (A) (A) (A) (A) (A) (A) (A) (A) (A) (A) (A)
                 (A) (A) (A) (A) (A) (A) (A) (A) (A) (A) (A) (A)
                 (A) (A) (A) (A) (A) (A) (A) (A) (A) (A) (A) (A)
                 (A) (A) (A) (A) (A) (A) (A) (A) (A) (A) (A) (A)
                 (A) (A) (A) (A) (A) (A) (A) (A) (A) (A) (A)
 Beta  Orbitals:
       Occupied  (A) (A) (A) (A) (A) (A) (A) (A) (A) (A) (A) (A)
                 (A) (A) (A) (A) (A) (A) (A) (A) (A) (A) (A) (A)
                 (A) (A) (A) (A) (A) (A) (A) (A) (A) (A) (A) (A)
                 (A) (A) (A) (A) (A) (A) (A) (A) (A) (A) (A) (A)
                 (A) (A) (A) (A) (A) (A) (A) (A) (A) (A) (A) (A)
                 (A) (A) (A) (A) (A) (A) (A) (A) (A) (A) (A) (A)
                 (A) (A) (A) (A) (A) (A) (A) (A) (A) (A) (A) (A)
                 (A) (A) (A) (A) (A) (A) (A) (A) (A) (A) (A) (A)
                 (A) (A) (A) (A) (A) (A)
       Virtual   (A) (A) (A) (A) (A) (A) (A) (A) (A) (A) (A) (A)
                 (A) (A) (A) (A) (A) (A) (A) (A) (A) (A) (A) (A)
                 (A) (A) (A) (A) (A) (A) (A) (A) (A) (A) (A) (A)
                 (A) (A) (A) (A) (A) (A) (A) (A) (A) (A) (A) (A)
                 (A) (A) (A) (A) (A) (A) (A) (A) (A) (A) (A) (A)
                 (A) (A) (A) (A) (A) (A) (A) (A) (A) (A) (A) (A)
                 (A) (A) (A) (A) (A) (A) (A) (A) (A) (A) (A) (A)
                 (A) (A) (A) (A) (A) (A) (A) (A) (A) (A) (A) (A)
                 (A) (A) (A) (A) (A) (A) (A) (A) (A) (A) (A) (A)
                 (A) (A) (A) (A) (A) (A) (A) (A) (A) (A) (A) (A)
                 (A) (A) (A) (A) (A) (A) (A) (A) (A) (A) (A) (A)
                 (A) (A) (A) (A) (A) (A) (A) (A) (A) (A) (A) (A)
                 (A) (A) (A) (A) (A) (A) (A) (A) (A) (A) (A) (A)
                 (A) (A) (A) (A) (A) (A) (A) (A) (A) (A) (A) (A)
                 (A) (A) (A) (A) (A) (A) (A) (A) (A) (A) (A) (A)
                 (A) (A) (A) (A) (A) (A) (A) (A) (A) (A) (A) (A)
                 (A) (A) (A) (A) (A) (A) (A) (A) (A) (A) (A) (A)
                 (A) (A) (A) (A) (A) (A) (A) (A) (A) (A) (A) (A)
                 (A) (A) (A) (A) (A) (A) (A) (A) (A) (A) (A) (A)
                 (A) (A) (A) (A) (A) (A) (A) (A) (A) (A) (A) (A)
                 (A) (A) (A) (A) (A) (A) (A) (A) (A) (A) (A) (A)
                 (A) (A) (A) (A) (A) (A) (A) (A) (A) (A) (A) (A)
                 (A) (A) (A) (A) (A) (A) (A) (A) (A) (A) (A) (A)
                 (A) (A) (A) (A) (A) (A) (A) (A) (A) (A) (A) (A)
                 (A) (A) (A) (A) (A) (A) (A) (A) (A) (A) (A) (A)
                 (A) (A) (A) (A) (A) (A) (A) (A) (A) (A) (A) (A)
                 (A) (A) (A) (A) (A) (A) (A) (A) (A) (A) (A) (A)
                 (A) (A) (A) (A) (A) (A) (A) (A) (A) (A) (A) (A)
                 (A) (A) (A) (A) (A) (A) (A) (A) (A) (A) (A) (A)
                 (A) (A) (A) (A) (A) (A) (A) (A) (A) (A) (A) (A)
                 (A) (A) (A) (A) (A) (A) (A) (A) (A) (A) (A) (A)
                 (A) (A) (A) (A) (A) (A) (A) (A) (A) (A) (A) (A)
                 (A) (A) (A) (A) (A) (A) (A) (A) (A) (A) (A) (A)
                 (A) (A) (A) (A) (A) (A) (A) (A) (A) (A) (A) (A)
                 (A) (A) (A) (A) (A) (A) (A) (A) (A) (A) (A) (A)
                 (A) (A) (A) (A) (A) (A) (A) (A) (A) (A) (A) (A)
                 (A) (A) (A) (A) (A) (A) (A) (A) (A) (A) (A) (A)
                 (A) (A) (A) (A) (A) (A) (A) (A) (A) (A) (A) (A)
                 (A) (A) (A) (A) (A) (A) (A) (A) (A) (A) (A) (A)
                 (A) (A) (A) (A) (A) (A) (A) (A) (A) (A) (A) (A)
 The electronic state is 2-A.
 Alpha  occ. eigenvalues --  -89.09057 -89.09057 -19.28999 -19.28999 -14.53825
 Alpha  occ. eigenvalues --  -14.53825 -14.50843 -14.50843 -10.45463 -10.45462
 Alpha  occ. eigenvalues --  -10.43171 -10.43171 -10.38843 -10.38843 -10.37036
 Alpha  occ. eigenvalues --  -10.37036 -10.36307 -10.36247 -10.36055 -10.36055
 Alpha  occ. eigenvalues --  -10.34229 -10.34229 -10.33783 -10.33783 -10.33251
 Alpha  occ. eigenvalues --  -10.33251 -10.32813 -10.32813  -8.14497  -8.14497
 Alpha  occ. eigenvalues --   -6.10996  -6.10995  -6.10474  -6.10474  -6.10270
 Alpha  occ. eigenvalues --   -6.10270  -1.20694  -1.20196  -1.13618  -1.12317
 Alpha  occ. eigenvalues --   -1.11378  -1.11142  -0.98810  -0.98756  -0.97172
 Alpha  occ. eigenvalues --   -0.96497  -0.95968  -0.89918  -0.88798  -0.88763
 Alpha  occ. eigenvalues --   -0.88484  -0.85789  -0.83782  -0.83155  -0.77548
 Alpha  occ. eigenvalues --   -0.76665  -0.75457  -0.74378  -0.73827  -0.72348
 Alpha  occ. eigenvalues --   -0.70786  -0.69808  -0.67679  -0.66572  -0.64200
 Alpha  occ. eigenvalues --   -0.62814  -0.62537  -0.62315  -0.61128  -0.60931
 Alpha  occ. eigenvalues --   -0.60487  -0.59960  -0.58707  -0.58245  -0.57507
 Alpha  occ. eigenvalues --   -0.57486  -0.57118  -0.57111  -0.56644  -0.56641
 Alpha  occ. eigenvalues --   -0.55002  -0.51695  -0.50626  -0.50570  -0.50445
 Alpha  occ. eigenvalues --   -0.50333  -0.50189  -0.48928  -0.48671  -0.48203
 Alpha  occ. eigenvalues --   -0.48177  -0.44324  -0.43788  -0.43551  -0.43481
 Alpha  occ. eigenvalues --   -0.42901  -0.42794  -0.41340  -0.39141  -0.39116
 Alpha  occ. eigenvalues --   -0.38222  -0.37103  -0.33517
 Alpha virt. eigenvalues --   -0.26288  -0.22076  -0.18504  -0.15355  -0.12680
 Alpha virt. eigenvalues --   -0.12576  -0.12379  -0.12254  -0.11678  -0.11281
 Alpha virt. eigenvalues --   -0.10753  -0.10216  -0.09268  -0.08253  -0.07486
 Alpha virt. eigenvalues --   -0.07217  -0.06874  -0.06408  -0.06303  -0.05097
 Alpha virt. eigenvalues --   -0.04992  -0.04772  -0.04397  -0.04291  -0.04264
 Alpha virt. eigenvalues --   -0.03634  -0.03357  -0.02887  -0.02710  -0.02355
 Alpha virt. eigenvalues --   -0.02284  -0.01986  -0.01739  -0.01354  -0.00928
 Alpha virt. eigenvalues --   -0.00816  -0.00711  -0.00008   0.00305   0.00482
 Alpha virt. eigenvalues --    0.00965   0.01361   0.01426   0.01787   0.01997
 Alpha virt. eigenvalues --    0.02019   0.02323   0.02931   0.02960   0.03655
 Alpha virt. eigenvalues --    0.03840   0.04172   0.04616   0.04804   0.04844
 Alpha virt. eigenvalues --    0.05355   0.05544   0.05841   0.06122   0.06360
 Alpha virt. eigenvalues --    0.07081   0.07155   0.07695   0.07961   0.08020
 Alpha virt. eigenvalues --    0.08081   0.08195   0.08416   0.08626   0.09027
 Alpha virt. eigenvalues --    0.09308   0.09597   0.09736   0.10040   0.10251
 Alpha virt. eigenvalues --    0.10301   0.10505   0.10744   0.10844   0.11548
 Alpha virt. eigenvalues --    0.11656   0.11929   0.12211   0.12508   0.12857
 Alpha virt. eigenvalues --    0.13061   0.13196   0.13372   0.13505   0.13918
 Alpha virt. eigenvalues --    0.14115   0.14445   0.14482   0.14620   0.14974
 Alpha virt. eigenvalues --    0.15280   0.15448   0.15972   0.16141   0.16537
 Alpha virt. eigenvalues --    0.16731   0.17151   0.17157   0.17386   0.17434
 Alpha virt. eigenvalues --    0.17617   0.17966   0.18131   0.18735   0.19004
 Alpha virt. eigenvalues --    0.19267   0.19430   0.19455   0.19716   0.19879
 Alpha virt. eigenvalues --    0.20666   0.20733   0.20915   0.21072   0.21308
 Alpha virt. eigenvalues --    0.21506   0.22053   0.22301   0.22712   0.23067
 Alpha virt. eigenvalues --    0.23393   0.23699   0.23880   0.24455   0.25223
 Alpha virt. eigenvalues --    0.25547   0.25558   0.25687   0.26279   0.26956
 Alpha virt. eigenvalues --    0.27519   0.27840   0.28286   0.28905   0.29737
 Alpha virt. eigenvalues --    0.29980   0.31618   0.31781   0.31969   0.32194
 Alpha virt. eigenvalues --    0.32266   0.35177   0.35629   0.36303   0.37244
 Alpha virt. eigenvalues --    0.37306   0.40066   0.40636   0.41017   0.41749
 Alpha virt. eigenvalues --    0.42686   0.43774   0.45372   0.47970   0.48349
 Alpha virt. eigenvalues --    0.48648   0.50001   0.50490   0.51357   0.51789
 Alpha virt. eigenvalues --    0.51898   0.52685   0.55141   0.55584   0.55675
 Alpha virt. eigenvalues --    0.55770   0.57042   0.57488   0.57982   0.58070
 Alpha virt. eigenvalues --    0.58270   0.58460   0.59005   0.59309   0.59804
 Alpha virt. eigenvalues --    0.60117   0.60336   0.60406   0.60851   0.61285
 Alpha virt. eigenvalues --    0.62696   0.63028   0.63406   0.63745   0.64064
 Alpha virt. eigenvalues --    0.64272   0.65577   0.65701   0.65721   0.66343
 Alpha virt. eigenvalues --    0.66835   0.67417   0.67943   0.68507   0.69213
 Alpha virt. eigenvalues --    0.70238   0.71815   0.72177   0.72588   0.74625
 Alpha virt. eigenvalues --    0.77282   0.77288   0.77614   0.78410   0.79112
 Alpha virt. eigenvalues --    0.80178   0.80932   0.81891   0.82151   0.82351
 Alpha virt. eigenvalues --    0.82677   0.83406   0.84030   0.84327   0.85886
 Alpha virt. eigenvalues --    0.86114   0.86275   0.86938   0.87367   0.88710
 Alpha virt. eigenvalues --    0.90953   0.91064   0.91200   0.91698   0.91916
 Alpha virt. eigenvalues --    0.92247   0.93000   0.94116   0.94247   0.94798
 Alpha virt. eigenvalues --    0.97076   0.97272   0.98426   0.99189   0.99208
 Alpha virt. eigenvalues --    0.99818   1.00195   1.01103   1.01241   1.01983
 Alpha virt. eigenvalues --    1.03908   1.04748   1.05085   1.05870   1.06311
 Alpha virt. eigenvalues --    1.06967   1.07860   1.09114   1.09356   1.10229
 Alpha virt. eigenvalues --    1.11110   1.11227   1.11304   1.12243   1.13230
 Alpha virt. eigenvalues --    1.13560   1.13818   1.14555   1.15485   1.16213
 Alpha virt. eigenvalues --    1.16888   1.17516   1.19256   1.20175   1.21094
 Alpha virt. eigenvalues --    1.21301   1.22324   1.22495   1.23185   1.24201
 Alpha virt. eigenvalues --    1.24399   1.24557   1.25342   1.25604   1.25861
 Alpha virt. eigenvalues --    1.26064   1.26604   1.27009   1.27440   1.28086
 Alpha virt. eigenvalues --    1.28097   1.29120   1.29422   1.30359   1.30773
 Alpha virt. eigenvalues --    1.31453   1.32291   1.33383   1.33627   1.34692
 Alpha virt. eigenvalues --    1.36115   1.36719   1.40150   1.44753   1.45002
 Alpha virt. eigenvalues --    1.50066   1.50242   1.51910   1.55109   1.56050
 Alpha virt. eigenvalues --    1.58445   1.59253   1.60984   1.61339   1.62996
 Alpha virt. eigenvalues --    1.65080   1.65980   1.66924   1.66978   1.67338
 Alpha virt. eigenvalues --    1.68346   1.68864   1.70210   1.71219   1.71842
 Alpha virt. eigenvalues --    1.72433   1.72928   1.73244   1.73823   1.75599
 Alpha virt. eigenvalues --    1.76042   1.77848   1.78134   1.78946   1.79833
 Alpha virt. eigenvalues --    1.80692   1.81168   1.81589   1.81850   1.82097
 Alpha virt. eigenvalues --    1.82132   1.85329   1.86035   1.87379   1.87474
 Alpha virt. eigenvalues --    1.87727   1.87957   1.88683   1.89466   1.89765
 Alpha virt. eigenvalues --    1.92474   1.92819   1.94015   1.94468   1.95753
 Alpha virt. eigenvalues --    1.96080   1.98229   1.98332   2.00660   2.03486
 Alpha virt. eigenvalues --    2.03622   2.05391   2.06897   2.08219   2.10611
 Alpha virt. eigenvalues --    2.11656   2.11784   2.12902   2.13765   2.15519
 Alpha virt. eigenvalues --    2.16513   2.17076   2.21947   2.22498   2.22648
 Alpha virt. eigenvalues --    2.22680   2.23436   2.23458   2.24756   2.25532
 Alpha virt. eigenvalues --    2.26059   2.27182   2.27360   2.29134   2.29531
 Alpha virt. eigenvalues --    2.30777   2.30801   2.34259   2.34595   2.35865
 Alpha virt. eigenvalues --    2.36498   2.36728   2.37772   2.37858   2.38844
 Alpha virt. eigenvalues --    2.39203   2.41513   2.43456   2.43672   2.45232
 Alpha virt. eigenvalues --    2.45269   2.45738   2.45978   2.47358   2.48435
 Alpha virt. eigenvalues --    2.48913   2.49568   2.50079   2.52337   2.52351
 Alpha virt. eigenvalues --    2.53520   2.54766   2.54960   2.60615   2.60829
 Alpha virt. eigenvalues --    2.61473   2.63126   2.64219   2.64612   2.65662
 Alpha virt. eigenvalues --    2.66086   2.67331   2.68363   2.71488   2.72372
 Alpha virt. eigenvalues --    2.75988   2.80059   2.82648   2.85836   2.86591
 Alpha virt. eigenvalues --    2.88098   2.90725   2.90860   2.92777   2.92934
 Alpha virt. eigenvalues --    2.99058   3.01720   3.02513   3.07505   3.07723
 Alpha virt. eigenvalues --    3.13032   3.14867   3.15436   3.15465   3.18606
 Alpha virt. eigenvalues --    3.22170   3.23400   3.23808   3.25459   3.28713
 Alpha virt. eigenvalues --    3.37286   3.37570   3.44667   3.44674   3.71793
 Alpha virt. eigenvalues --    3.71803   3.86039   3.86814   3.99254   4.00716
 Alpha virt. eigenvalues --    4.11350   4.15833   4.15901   4.18248   4.18609
 Alpha virt. eigenvalues --    4.18733   4.21849   4.23293   4.24469   4.26598
 Alpha virt. eigenvalues --    4.28476   4.29298   4.30590   4.38255   4.38814
 Alpha virt. eigenvalues --    4.39293   4.39634   4.47174   4.55834   4.64225
 Alpha virt. eigenvalues --    4.74074   4.74759   4.87680   4.95478
  Beta  occ. eigenvalues --  -89.09054 -89.09054 -19.28757 -19.28757 -14.53840
  Beta  occ. eigenvalues --  -14.53840 -14.50523 -14.50523 -10.45475 -10.45475
  Beta  occ. eigenvalues --  -10.43075 -10.43075 -10.38852 -10.38852 -10.37099
  Beta  occ. eigenvalues --  -10.37099 -10.36123 -10.36061 -10.36009 -10.36009
  Beta  occ. eigenvalues --  -10.34229 -10.34229 -10.33709 -10.33709 -10.33155
  Beta  occ. eigenvalues --  -10.33155 -10.32849 -10.32849  -8.14494  -8.14494
  Beta  occ. eigenvalues --   -6.10999  -6.10998  -6.10476  -6.10476  -6.10253
  Beta  occ. eigenvalues --   -6.10253  -1.20358  -1.19841  -1.13354  -1.12128
  Beta  occ. eigenvalues --   -1.10986  -1.10795  -0.98665  -0.98615  -0.96858
  Beta  occ. eigenvalues --   -0.96290  -0.95805  -0.89640  -0.88729  -0.88695
  Beta  occ. eigenvalues --   -0.88359  -0.85393  -0.83483  -0.83027  -0.77371
  Beta  occ. eigenvalues --   -0.76584  -0.75294  -0.74288  -0.73751  -0.72226
  Beta  occ. eigenvalues --   -0.70667  -0.69728  -0.67555  -0.66489  -0.64065
  Beta  occ. eigenvalues --   -0.62718  -0.62439  -0.61621  -0.61000  -0.60805
  Beta  occ. eigenvalues --   -0.60401  -0.59841  -0.58475  -0.57942  -0.57439
  Beta  occ. eigenvalues --   -0.57392  -0.57042  -0.56948  -0.56065  -0.56045
  Beta  occ. eigenvalues --   -0.54835  -0.50765  -0.50483  -0.50469  -0.50273
  Beta  occ. eigenvalues --   -0.50210  -0.49403  -0.48872  -0.48608  -0.47716
  Beta  occ. eigenvalues --   -0.47651  -0.43434  -0.43208  -0.43181  -0.43094
  Beta  occ. eigenvalues --   -0.42543  -0.42181  -0.41073  -0.39010  -0.38982
  Beta  occ. eigenvalues --   -0.37200  -0.36202
  Beta virt. eigenvalues --   -0.29197  -0.24820  -0.21088  -0.17840  -0.14848
  Beta virt. eigenvalues --   -0.12257  -0.12232  -0.12177  -0.12100  -0.11385
  Beta virt. eigenvalues --   -0.11172  -0.10687  -0.09852  -0.09224  -0.08233
  Beta virt. eigenvalues --   -0.07468  -0.07190  -0.06833  -0.06340  -0.06224
  Beta virt. eigenvalues --   -0.05060  -0.04926  -0.04508  -0.04375  -0.04207
  Beta virt. eigenvalues --   -0.04040  -0.03602  -0.03316  -0.02840  -0.02683
  Beta virt. eigenvalues --   -0.02274  -0.01966  -0.01686  -0.01466  -0.01333
  Beta virt. eigenvalues --   -0.00866  -0.00667  -0.00596   0.00017   0.00424
  Beta virt. eigenvalues --    0.00582   0.00983   0.01393   0.01441   0.01903
  Beta virt. eigenvalues --    0.02073   0.02133   0.02410   0.02976   0.03017
  Beta virt. eigenvalues --    0.03730   0.03872   0.04251   0.04632   0.04816
  Beta virt. eigenvalues --    0.04960   0.05399   0.05592   0.05879   0.06201
  Beta virt. eigenvalues --    0.06404   0.07140   0.07214   0.07743   0.08009
  Beta virt. eigenvalues --    0.08065   0.08158   0.08257   0.08530   0.08735
  Beta virt. eigenvalues --    0.09088   0.09354   0.09629   0.09782   0.10078
  Beta virt. eigenvalues --    0.10317   0.10326   0.10520   0.10777   0.10907
  Beta virt. eigenvalues --    0.11631   0.11704   0.11968   0.12283   0.12537
  Beta virt. eigenvalues --    0.12884   0.13109   0.13233   0.13438   0.13569
  Beta virt. eigenvalues --    0.14001   0.14183   0.14511   0.14537   0.14672
  Beta virt. eigenvalues --    0.15026   0.15347   0.15567   0.16061   0.16177
  Beta virt. eigenvalues --    0.16603   0.16788   0.17189   0.17265   0.17396
  Beta virt. eigenvalues --    0.17508   0.17692   0.18022   0.18209   0.18793
  Beta virt. eigenvalues --    0.19057   0.19312   0.19475   0.19499   0.19756
  Beta virt. eigenvalues --    0.19952   0.20716   0.20851   0.20986   0.21132
  Beta virt. eigenvalues --    0.21418   0.21540   0.22125   0.22352   0.22805
  Beta virt. eigenvalues --    0.23122   0.23435   0.23746   0.23954   0.24516
  Beta virt. eigenvalues --    0.25273   0.25594   0.25600   0.25718   0.26350
  Beta virt. eigenvalues --    0.27017   0.27556   0.27911   0.28335   0.28943
  Beta virt. eigenvalues --    0.29846   0.30011   0.31689   0.31839   0.32048
  Beta virt. eigenvalues --    0.32246   0.32305   0.35234   0.35700   0.36376
  Beta virt. eigenvalues --    0.37326   0.37377   0.40115   0.40709   0.41072
  Beta virt. eigenvalues --    0.41856   0.42746   0.43844   0.45467   0.48030
  Beta virt. eigenvalues --    0.48485   0.48712   0.50049   0.50585   0.51411
  Beta virt. eigenvalues --    0.51822   0.51981   0.52784   0.55261   0.55721
  Beta virt. eigenvalues --    0.55851   0.55948   0.57108   0.57635   0.58127
  Beta virt. eigenvalues --    0.58470   0.58481   0.58549   0.59134   0.59465
  Beta virt. eigenvalues --    0.59920   0.60379   0.60497   0.60634   0.61023
  Beta virt. eigenvalues --    0.61444   0.62728   0.63056   0.63454   0.63797
  Beta virt. eigenvalues --    0.64143   0.64471   0.65713   0.65766   0.65787
  Beta virt. eigenvalues --    0.66470   0.66922   0.67620   0.68124   0.68554
  Beta virt. eigenvalues --    0.69648   0.70302   0.72025   0.72372   0.72654
  Beta virt. eigenvalues --    0.74681   0.77316   0.77329   0.77697   0.78477
  Beta virt. eigenvalues --    0.79154   0.80259   0.81001   0.81965   0.82205
  Beta virt. eigenvalues --    0.82380   0.82696   0.83504   0.84060   0.84373
  Beta virt. eigenvalues --    0.85999   0.86161   0.86328   0.86957   0.87443
  Beta virt. eigenvalues --    0.88794   0.91092   0.91242   0.91652   0.91953
  Beta virt. eigenvalues --    0.92383   0.92447   0.93044   0.94234   0.94429
  Beta virt. eigenvalues --    0.94870   0.97150   0.97385   0.98559   0.99321
  Beta virt. eigenvalues --    0.99335   0.99896   1.00289   1.01143   1.01253
  Beta virt. eigenvalues --    1.02039   1.04034   1.04947   1.05183   1.05988
  Beta virt. eigenvalues --    1.06392   1.07062   1.08065   1.09234   1.09445
  Beta virt. eigenvalues --    1.10524   1.11273   1.11361   1.11457   1.12548
  Beta virt. eigenvalues --    1.13338   1.13847   1.14292   1.14779   1.15715
  Beta virt. eigenvalues --    1.16456   1.17147   1.17624   1.19448   1.20319
  Beta virt. eigenvalues --    1.21311   1.21508   1.22516   1.22617   1.23284
  Beta virt. eigenvalues --    1.24463   1.24534   1.24749   1.25594   1.25808
  Beta virt. eigenvalues --    1.26086   1.26207   1.26806   1.27147   1.27746
  Beta virt. eigenvalues --    1.28215   1.28246   1.29293   1.29482   1.30487
  Beta virt. eigenvalues --    1.30929   1.31560   1.32393   1.33465   1.33740
  Beta virt. eigenvalues --    1.34800   1.36261   1.36861   1.40353   1.44942
  Beta virt. eigenvalues --    1.45207   1.50324   1.50364   1.52114   1.55297
  Beta virt. eigenvalues --    1.56301   1.58657   1.59704   1.61172   1.61561
  Beta virt. eigenvalues --    1.63137   1.65280   1.66380   1.67089   1.67417
  Beta virt. eigenvalues --    1.67772   1.68515   1.69156   1.70368   1.71339
  Beta virt. eigenvalues --    1.71924   1.72879   1.73399   1.73403   1.73929
  Beta virt. eigenvalues --    1.75919   1.76308   1.77926   1.78279   1.79032
  Beta virt. eigenvalues --    1.79912   1.80912   1.81418   1.81741   1.82046
  Beta virt. eigenvalues --    1.82184   1.82209   1.85574   1.86196   1.87487
  Beta virt. eigenvalues --    1.87573   1.87900   1.88273   1.88885   1.89580
  Beta virt. eigenvalues --    1.89923   1.92596   1.92996   1.94179   1.94653
  Beta virt. eigenvalues --    1.95829   1.96353   1.98390   1.98555   2.00749
  Beta virt. eigenvalues --    2.03766   2.04110   2.05531   2.07039   2.08448
  Beta virt. eigenvalues --    2.10798   2.11812   2.12072   2.13056   2.13938
  Beta virt. eigenvalues --    2.15864   2.16654   2.17248   2.22104   2.22647
  Beta virt. eigenvalues --    2.22750   2.22825   2.23612   2.23650   2.24870
  Beta virt. eigenvalues --    2.25631   2.26193   2.27271   2.27438   2.29303
  Beta virt. eigenvalues --    2.29700   2.30964   2.31001   2.34517   2.34895
  Beta virt. eigenvalues --    2.35992   2.36640   2.36853   2.37959   2.37999
  Beta virt. eigenvalues --    2.38983   2.39341   2.41566   2.43661   2.43903
  Beta virt. eigenvalues --    2.45328   2.45466   2.45857   2.46108   2.47562
  Beta virt. eigenvalues --    2.48591   2.49025   2.49631   2.50184   2.52465
  Beta virt. eigenvalues --    2.52518   2.53598   2.54833   2.55176   2.60737
  Beta virt. eigenvalues --    2.61007   2.61732   2.63324   2.64312   2.64668
  Beta virt. eigenvalues --    2.65896   2.66225   2.67442   2.68462   2.71659
  Beta virt. eigenvalues --    2.72420   2.76354   2.80173   2.82814   2.85907
  Beta virt. eigenvalues --    2.86668   2.88259   2.90789   2.90929   2.92858
  Beta virt. eigenvalues --    2.93027   2.99155   3.01776   3.02561   3.07567
  Beta virt. eigenvalues --    3.07791   3.13165   3.14997   3.15445   3.15485
  Beta virt. eigenvalues --    3.18679   3.22221   3.23421   3.23831   3.25505
  Beta virt. eigenvalues --    3.28815   3.37310   3.37596   3.44681   3.44707
  Beta virt. eigenvalues --    3.71828   3.71839   3.86111   3.86880   3.99717
  Beta virt. eigenvalues --    4.01167   4.11458   4.15899   4.15983   4.18367
  Beta virt. eigenvalues --    4.18696   4.18872   4.21941   4.23375   4.24589
  Beta virt. eigenvalues --    4.26674   4.28717   4.29358   4.30762   4.38308
  Beta virt. eigenvalues --    4.38854   4.39372   4.39764   4.47304   4.56012
  Beta virt. eigenvalues --    4.64525   4.74146   4.74854   4.87879   4.95705
          Condensed to atoms (all electrons):
              1          2          3          4          5          6
     1  N    7.381305   0.253965  -0.026509   0.109441  -0.242314  -0.086921
     2  C    0.253965   8.817261  -0.321885  -1.247775  -2.634247   0.177423
     3  C   -0.026509  -0.321885  11.179783   1.117541  -4.123203  -1.192482
     4  C    0.109441  -1.247775   1.117541  16.351192  -1.641475  -4.123166
     5  C   -0.242314  -2.634247  -4.123203  -1.641475  16.351225   1.117545
     6  C   -0.086921   0.177423  -1.192482  -4.123166   1.117545  11.179751
     7  C   -0.019262  -0.037460   0.177420  -2.634247  -1.247769  -0.321891
     8  N    0.004521  -0.019262  -0.086922  -0.242315   0.109438  -0.026508
     9  O   -0.067860   0.190813  -0.027918  -0.020752   0.045930   0.058453
    10  O   -0.004000   0.011917   0.058453   0.045931  -0.020752  -0.027917
    11  H    0.000270   0.000890  -0.016098   0.009659   0.040966  -0.028733
    12  H    0.305073  -0.008660  -0.028733   0.040967   0.009660  -0.016098
    13  C   -0.031723  -0.072586  -0.035296  -0.530983  -1.164646   0.121144
    14  C   -0.003390   0.087562   0.682268  -0.148238  -0.035796  -2.206178
    15  C    0.015090  -0.028560  -0.106558   0.761633   0.074187  -0.450399
    16  H   -0.000014  -0.002891  -0.001209  -0.011829  -0.002627   0.029187
    17  C    0.000870   0.032800  -0.023889  -0.273031   0.107142   0.062958
    18  H    0.000000   0.000012   0.000010   0.000214  -0.000082  -0.002224
    19  C   -0.000095  -0.004299   0.004664   0.042638  -0.041207  -0.152652
    20  H    0.000000   0.000003   0.000000  -0.000005   0.000033   0.000167
    21  C   -0.001158   0.004762  -0.036405  -0.164406  -0.164961   0.964476
    22  C   -0.099275  -0.004492  -0.127687  -0.263219  -0.114904   0.535863
    23  S    0.029847  -0.056591   0.003113   0.264361  -0.043284  -0.431508
    24  N    0.002037   0.054626   0.000887   0.037386   0.059642  -0.039604
    25  C   -0.133351  -0.284438   0.121146  -1.164664  -0.530987  -0.035300
    26  C   -0.173893  -0.387033  -2.206179  -0.035811  -0.148255   0.682260
    27  C    0.214876   0.349920  -0.450409   0.074205   0.761640  -0.106554
    28  H   -0.017468   0.017559   0.029187  -0.002627  -0.011830  -0.001209
    29  C    0.055977   0.182696   0.062961   0.107145  -0.273032  -0.023889
    30  H    0.000464  -0.000028  -0.002224  -0.000082   0.000214   0.000010
    31  C    0.001401   0.000453  -0.152654  -0.041207   0.042637   0.004664
    32  H    0.000013  -0.000020   0.000167   0.000033  -0.000005   0.000000
    33  C   -0.033934  -0.016907   0.964487  -0.164961  -0.164405  -0.036405
    34  C   -0.144243   0.234609   0.535872  -0.114914  -0.263225  -0.127687
    35  S    0.037840   0.175085  -0.431512  -0.043276   0.264363   0.003114
    36  N    0.001849   0.006096  -0.039605   0.059643   0.037386   0.000887
    37  H    0.000000  -0.000052   0.000001   0.000033  -0.000040   0.000764
    38  H   -0.000002   0.000012   0.000764  -0.000040   0.000033   0.000001
              7          8          9         10         11         12
     1  N   -0.019262   0.004521  -0.067860  -0.004000   0.000270   0.305073
     2  C   -0.037460  -0.019262   0.190813   0.011917   0.000890  -0.008660
     3  C    0.177420  -0.086922  -0.027918   0.058453  -0.016098  -0.028733
     4  C   -2.634247  -0.242315  -0.020752   0.045931   0.009659   0.040967
     5  C   -1.247769   0.109438   0.045930  -0.020752   0.040966   0.009660
     6  C   -0.321891  -0.026508   0.058453  -0.027917  -0.028733  -0.016098
     7  C    8.817268   0.253966   0.011917   0.190813  -0.008659   0.000889
     8  N    0.253966   7.381305  -0.004000  -0.067860   0.305073   0.000270
[...]
 000712,0.00001526,-0.00066510,-0.00012349,-0.00003484,0.00001033,0.000
 00442,0.00004142,0.00060841,0.00012411,0.00186649,0.00083762,0.0000310
 3,0.00041654,-0.00015117,0.00001249,-0.00052555,-0.00051355,-0.0001016
 7,-0.03862706,-0.03608715,0.00414435,-0.21010967,0.04883427,-0.0207805
 7,-0.02815516,0.03740250,-0.00803453,0.00004084,0.00021838,-0.00037659
 ,0.02891076,0.00396340,0.00077049,0.00058162,-0.00012638,-0.00025048,-
 0.00524268,-0.01489982,0.00307289,-0.00015693,-0.00008850,0.00004519,-
 0.00746523,0.00344909,-0.00133489,0.67475522,-0.04748637,-0.02280959,0
 .00073024,0.01174141,-0.00763782,0.00037845,-0.06050833,-0.12602047,0.
 00216848,0.00273145,0.01790954,-0.00080322,0.00626686,0.00125476,0.000
 26192,-0.00067024,0.00154597,0.00004862,-0.00019214,-0.00027141,0.0000
 7154,0.00071078,-0.00038484,0.00004643,-0.00427582,-0.00057993,-0.0001
 8070,0.00018247,0.00079757,-0.00021512,0.00013885,-0.00004240,-0.00000
 033,-0.00114349,0.00110557,-0.00065700,-0.00002119,0.00010064,-0.00000
 626,-0.00013482,-0.00007064,-0.00004680,-0.00019724,0.00007049,0.00005
 276,0.00002028,0.00000800,0.00000028,0.00011050,0.00009463,0.00000265,
 0.00000251,0.00000151,0.00000068,0.00006657,-0.00001475,-0.00000313,-0
 .00001378,0.00000973,0.00000115,0.00015063,0.00008138,0.00002862,0.000
 87022,-0.00040723,-0.00011720,0.00034436,-0.00021600,-0.00001761,-0.00
 043779,-0.00022226,-0.00002170,0.00169060,0.01971875,-0.00272940,0.063
 12977,-0.13264940,0.01751848,0.03613732,-0.01321337,0.00480689,-0.0005
 7369,0.00175059,-0.00107737,-0.00809328,-0.00553464,0.00232750,0.00117
 371,-0.00007372,0.00012081,0.00282606,0.00273255,-0.00066332,0.0000489
 8,0.00010997,-0.00013504,-0.00268701,-0.00441725,0.00137070,0.04501485
 ,0.42147415,0.00159409,0.00006436,0.00685818,-0.00014601,0.00047225,0.
 00301202,-0.00836317,0.00285645,-0.05163189,-0.00203276,-0.00141014,0.
 00348110,-0.00031394,0.00040822,0.00424623,-0.00028618,-0.00018094,0.0
 0060006,0.00014787,-0.00022103,-0.00175112,0.00010752,-0.00001080,0.00
 028912,0.00018891,0.00008461,-0.00023736,-0.00004419,0.00023342,0.0006
 3805,-0.00000739,0.00000842,-0.00003009,-0.00009872,0.00018816,-0.0012
 0382,-0.00003766,0.00006836,-0.00020317,-0.00006741,0.00005661,0.00011
 246,0.00009456,-0.00007437,-0.00002230,-0.00000266,0.00000068,-0.00000
 901,-0.00012069,-0.00000838,0.00003886,0.00000031,0.00000050,-0.000005
 03,0.00001532,0.00009686,-0.00004670,0.00000037,-0.00000086,-0.0000011
 3,0.00006627,-0.00009526,0.00014113,0.00008045,0.00012623,-0.00089434,
 0.00007586,-0.00007085,-0.00001235,-0.00006946,-0.00001402,0.00007260,
 -0.00299907,-0.00398080,0.00441454,-0.02145796,0.01605625,-0.05988360,
 -0.00926485,0.00515644,-0.00030204,0.00005786,-0.00105770,-0.00249700,
 0.00279481,0.00295886,0.00538043,-0.00028619,0.00007265,0.00027974,-0.
 00049075,-0.00133573,-0.00078342,-0.00000792,-0.00010499,-0.00039764,0
 .00019643,0.00091761,0.00168612,0.03509936,-0.04503353,0.11387737,-0.0
 0557477,-0.00171221,0.00012641,0.00302619,-0.00072672,0.00010293,-0.00
 247839,-0.02340410,0.00400920,0.00245034,-0.00197182,-0.00018192,0.000
 65722,-0.00039650,0.00006327,0.00014300,-0.00054246,-0.00001028,-0.004
 71857,-0.00103745,0.00039374,0.00081009,0.00115420,0.00018463,-0.00158
 678,-0.00090393,-0.00009545,-0.00203019,0.00056551,-0.00030751,0.00000
 012,0.00008419,-0.00000448,-0.00072317,0.00004245,-0.00026218,-0.00020
 691,0.00014422,0.00001668,-0.00017437,0.00045580,0.00009384,0.00026433
 ,-0.00028976,-0.00006363,-0.00001974,0.00001239,0.00001165,-0.00023472
 ,-0.00008079,-0.00000611,-0.00000287,-0.00000112,-0.00000465,-0.000017
 05,0.00008895,0.00002323,0.00001024,-0.00000175,-0.00000219,0.00002266
 ,-0.00005163,0.00000046,0.00046674,0.00032850,-0.00002628,-0.00016045,
 -0.00055050,-0.00001680,0.00073311,0.00026368,-0.00001926,-0.07453529,
 0.05070894,-0.01351613,-0.00626360,0.00162289,-0.00015118,-0.00575626,
 -0.00204674,-0.00004119,0.00043773,-0.00059522,0.00022490,-0.00507436,
 -0.00286404,0.00027839,-0.00030278,0.00008023,0.00008524,0.00057523,0.
 00983985,-0.00217682,0.00009587,0.00046734,-0.00009373,0.01617203,-0.0
 0301606,0.00129524,-0.04562663,-0.01871535,0.00194598,0.32635519,0.005
 32942,0.00748713,-0.00007674,-0.00300283,0.00219866,0.00010020,-0.0291
 7714,-0.01720311,0.00049917,0.00652773,-0.00152634,0.00066587,-0.00037
 795,-0.00343486,-0.00042937,-0.00031656,0.00257348,-0.00000013,0.00484
 296,0.01093453,-0.00019391,-0.00270280,-0.00336923,-0.00003425,0.00060
 401,-0.00046727,0.00000569,-0.00689582,-0.00562888,0.00091862,0.000040
 97,0.00021715,0.00001502,0.00138319,-0.00038940,0.00039257,-0.00005938
 ,0.00003906,0.00001386,-0.00000897,0.00060102,0.00015264,0.00076699,-0
 .00038646,-0.00011718,-0.00005446,-0.00001139,-0.00002554,-0.00064870,
 -0.00023188,0.00001624,0.00000338,-0.00000732,-0.00000917,-0.00001335,
 0.00040891,0.00007573,0.00002564,-0.00001037,-0.00000816,-0.00005565,-
 0.00037487,-0.00007257,-0.00019094,-0.00021306,0.00005569,-0.00056191,
 -0.00042292,-0.00005032,0.00087609,0.00043579,0.00001137,0.03488619,-0
 .03352590,0.00996561,0.03524701,-0.04745590,0.01131432,-0.00065849,0.0
 0660539,-0.00060265,-0.00020441,-0.00073512,0.00017182,0.00680847,-0.0
 0049479,0.00055233,0.00028214,0.00008260,-0.00020894,-0.00277935,-0.00
 651764,0.00137560,0.00004785,-0.00036777,-0.00009512,-0.00609226,0.000
 34249,0.00074714,0.02478865,-0.13723820,0.01935926,-0.04778597,0.26810
 130,-0.00145845,-0.00074639,0.00389959,0.00047929,-0.00011454,0.001413
 27,0.00198228,-0.00040909,-0.00430789,0.00040013,-0.00010374,-0.001427
 99,0.00000184,0.00010096,-0.00060921,0.00005792,-0.00017146,0.00014051
 ,0.00033376,0.00018423,0.00093398,-0.00005952,0.00023932,0.00063067,-0
 .00025481,-0.00021782,-0.00044333,-0.00025515,0.00012076,-0.00181697,0
 .00001446,-0.00000961,0.00007035,-0.00011801,0.00016423,-0.00014702,-0
 .00000915,-0.00005449,0.00006085,0.00002259,-0.00000951,-0.00013454,-0
 .00007806,0.00005377,0.00004614,0.00000472,-0.00000531,0.00000791,0.00
 010443,0.00001502,-0.00001907,0.00000195,0.00000064,0.00000670,-0.0000
 2084,-0.00010317,-0.00000378,-0.00000288,-0.00000032,0.00000156,-0.000
 02631,0.00009260,-0.00000902,-0.00000826,0.00001189,-0.00000792,0.0000
 1936,0.00005095,-0.00002283,-0.00000373,-0.00000873,0.00001921,-0.0111
 7146,0.01092385,0.00927650,-0.00822325,0.01089829,0.00305141,0.0002969
 4,-0.00070069,0.00552846,0.00008557,0.00001520,-0.00020947,-0.00209677
 ,-0.00006014,0.00039126,-0.00002465,-0.00020413,-0.00079960,0.00057317
 ,0.00195925,-0.00050582,0.00005419,-0.00012846,-0.00101642,0.00157275,
 0.00125432,0.00791664,-0.00232751,0.01953596,-0.03624771,0.02268616,-0
 .04528063,0.05641711,0.00001900,0.00218657,-0.00032916,-0.00157708,-0.
 00180403,-0.00013355,0.00991140,-0.00499457,0.00040397,-0.00654044,0.0
 0528039,-0.00026917,-0.00322081,0.00176940,-0.00017098,0.00095916,-0.0
 0251045,0.00001564,-0.00350058,-0.00879648,0.00034038,0.00292079,0.001
 18192,-0.00018101,0.00111725,0.00164771,0.00007215,0.00432372,0.005534
 76,-0.00006457,0.00004359,-0.00013642,0.00001502,0.00046604,0.00018149
 ,0.00029909,0.00027381,-0.00011823,-0.00004527,0.00015304,-0.00094175,
 -0.00018008,-0.00059651,0.00042978,0.00011219,0.00004921,0.00002473,0.
 00000939,0.00035376,0.00025482,0.00000416,-0.00000420,-0.00000069,0.00
 001078,0.00010595,-0.00001224,0.00000049,-0.00002051,0.00001477,0.0000
 0814,0.00016059,0.00002609,-0.00001926,-0.00058122,-0.00041614,-0.0000
 0272,0.00073712,0.00085841,0.00000406,-0.00173364,-0.00061806,0.000067
 83,-0.09053183,0.05893999,-0.01269471,0.01733853,0.00640972,-0.0014159
 9,0.00106799,-0.00342356,0.00064444,0.00014317,-0.00069541,0.00007438,
 0.00132628,0.00306393,-0.00059901,0.00019085,0.00011849,-0.00002745,-0
 .00948883,-0.01026420,0.00142405,-0.00009359,0.00140969,-0.00035658,-0
 .02611079,0.05052789,-0.01123474,-0.04845742,-0.02718536,0.00354695,-0
 .19649338,-0.02106630,-0.00251331,0.34493265,-0.00202502,-0.00033053,-
 0.00054267,0.00081586,-0.00002927,-0.00007899,0.00364770,-0.00757439,0
 .00293036,0.00023978,0.00112430,0.00012038,-0.00200183,0.00015891,0.00
 021538,0.00095214,-0.00111194,-0.00006069,-0.00055945,-0.00337744,0.00
 000302,0.00092448,0.00082809,-0.00009903,-0.00026495,-0.00031154,0.000
 00384,0.00273074,0.00174919,-0.00030833,0.00000289,-0.00005670,-0.0000
 1315,-0.00024902,0.00017389,-0.00006526,0.00012181,-0.00013662,-0.0000
 3117,0.00016740,-0.00042778,-0.00010290,-0.00026899,0.00024197,0.00007
 294,0.00001594,0.00000274,-0.00000179,0.00019265,0.00010904,0.00000197
 ,0.00000409,0.00000078,0.00000300,0.00001876,-0.00006719,-0.00001050,-
 0.00000889,0.00000607,0.00000174,0.00003013,0.00006281,0.00000460,-0.0
 0048516,-0.00021536,-0.00000481,0.00028189,0.00042608,0.00000963,-0.00
 064203,-0.00020322,0.00003965,0.02747471,-0.29586277,0.04756185,-0.033
 75144,-0.06268475,0.01323212,-0.00917395,-0.00228008,0.00048556,0.0009
 0757,-0.00184504,0.00042313,-0.00982732,-0.00424228,0.00032286,-0.0000
 9087,-0.00023827,0.00009439,0.00805331,0.02371853,-0.00378453,-0.00004
 753,-0.00014425,0.00013450,0.04328521,-0.03560303,0.00882393,-0.013938
 62,-0.01743507,0.00429631,0.04083951,-0.04007963,0.00279149,-0.0562285
 3,0.44491366,0.00083697,-0.00000208,-0.00140036,-0.00047458,-0.0002756
 7,-0.00074560,0.00048478,0.00225000,0.00423989,-0.00106342,0.00040341,
 0.00053661,0.00013957,0.00024858,0.00018153,-0.00008164,-0.00010805,-0
 .00006653,-0.00055041,-0.00110462,-0.00010197,0.00029538,0.00011831,-0
 .00027608,0.00028006,0.00037589,0.00020468,0.00093244,0.00049778,0.001
 02899,-0.00001048,-0.00000569,-0.00003383,-0.00000478,-0.00006677,0.00
 012033,0.00003021,0.00005263,-0.00003733,-0.00004042,-0.00004945,0.000
 06359,-0.00002496,0.00000444,-0.00005380,0.00000126,0.00000733,-0.0000
 0732,0.00000241,0.00000423,0.00003189,-0.00000221,0.00000052,-0.000003
 56,0.00001524,0.00002097,-0.00001715,0.00000095,0.00000089,-0.00000061
 ,0.00000474,-0.00003201,0.00001279,0.00005720,0.00002697,0.00005601,0.
 00000445,-0.00001121,0.00002005,-0.00004761,-0.00003127,-0.00000975,-0
 .00633761,0.04905903,-0.06698654,0.00633011,0.01495488,0.01204565,0.00
 178347,0.00057539,0.00212241,-0.00020064,0.00029519,0.00001459,0.00158
 948,0.00068289,-0.00113587,0.00002679,0.00001001,-0.00018805,-0.002346
 59,-0.00376320,0.00576013,-0.00002856,0.00024442,0.00060494,-0.0095982
 0,0.00895674,-0.00466037,-0.00062084,0.00236295,0.01035380,-0.01456083
 ,0.00082189,-0.04180073,0.02273514,-0.07584147,0.08248084,-0.00002803,
 -0.00001868,0.00000077,0.00002758,0.00001160,-0.00000008,-0.00006061,0
 .00003161,0.00000119,0.00000950,0.00005642,-0.00000082,-0.00011524,-0.
 00014462,-0.00002479,-0.00033712,0.00034407,0.00007099,0.00002223,-0.0
 0002816,-0.00000414,0.00004507,0.00008703,0.00001281,-0.00001350,-0.00
 002669,0.00000017,0.00000234,0.00002149,-0.00000098,0.00000257,0.00001
 279,0.00000371,-0.00000433,0.00000204,-0.00000012,-0.01695059,-0.02172
 645,-0.00334007,-0.00304098,0.00309527,0.00106108,0.00004167,0.0005251
 9,0.00004666,0.00006159,-0.00012727,-0.00009628,0.00002260,0.00220466,
 0.00097327,0.00042076,0.00044870,0.00007691,0.01105543,0.00744499,0.00
 123014,0.00069860,-0.00021118,-0.00037469,-0.20649017,-0.14425064,-0.0
 2037047,-0.00036387,-0.00103868,-0.00008832,-0.00023323,0.00021596,0.0
 0004203,0.00234078,-0.00114943,-0.00044293,-0.00000466,0.00001183,-0.0
 0000051,-0.00001662,0.00001939,-0.00000462,0.00002402,-0.00001732,0.00
 000407,-0.00000074,0.00000005,0.00000040,-0.00002414,-0.00000649,-0.00
 000005,-0.00000051,-0.00000034,0.00000039,0.00000179,0.00001712,-0.000
 00406,0.00000058,-0.00000017,0.00000020,0.00000218,-0.00001398,0.00000
 236,0.00002761,0.00001598,-0.00000236,-0.00000905,-0.00002299,0.000002
 26,0.00002029,0.00000841,0.00000080,0.21286700,-0.00002040,-0.00003644
 ,-0.00000052,0.00003897,0.00005457,0.00000384,-0.00001666,0.00004346,-
 0.00000489,0.00002947,0.00000094,-0.00000226,0.00002491,0.00003648,0.0
 0005689,0.00017210,-0.00018975,-0.00010720,-0.00000312,-0.00003443,0.0
 0000534,-0.00002084,-0.00001036,0.00000875,-0.00004181,-0.00003462,-0.
 00000344,0.00000792,0.00002372,-0.00000033,0.00001289,-0.00001207,-0.0
 0001862,-0.00000074,0.00000274,-0.00000058,0.00786737,0.00983428,0.000
 82770,0.00202318,-0.00021630,-0.00102417,0.00069013,-0.00029605,0.0000
 8708,-0.00009837,-0.00001433,0.00023999,0.00249852,-0.00371602,-0.0026
 9388,-0.00107859,-0.00066624,-0.00004798,-0.02172139,-0.01318886,-0.00
 266261,0.00008567,0.00083672,0.00119911,-0.14461656,-0.19851073,-0.024
 87265,0.00060902,0.00047647,-0.00012377,-0.00000307,0.00006952,0.00008
 476,-0.00064999,0.00074050,0.00068561,-0.00000077,0.00000270,-0.000002
 37,-0.00000191,0.00000208,0.00000317,0.00000560,-0.00000274,-0.0000002
 4,-0.00000029,0.00000027,-0.00000006,-0.00000532,-0.00000162,0.0000000
 2,0.00000015,-0.00000033,0.00000027,0.00000127,0.00000426,-0.00000099,
 0.00000011,-0.00000002,0.00000012,-0.00000076,-0.00000292,0.00000040,0
 .00000322,-0.00000260,-0.00000432,-0.00000484,-0.00000417,-0.00000004,
 0.00000650,0.00000238,0.00000215,0.15420855,0.20480955,0.00001442,-0.0
 0000213,-0.00000133,-0.00000807,-0.00005151,0.00000127,0.00000308,-0.0
 0000363,0.00003038,-0.00001386,0.00001727,-0.00002294,-0.00002857,0.00
 005621,-0.00025777,0.00016246,-0.00016418,0.00034583,-0.00002815,-0.00
 003908,-0.00002072,0.00002798,0.00001331,0.00003137,0.00001361,0.00003
 624,-0.00001889,0.00001741,0.00003000,0.00000006,-0.00001616,0.0000057
 4,0.00002537,-0.00000054,-0.00000108,0.00000590,0.00325058,0.00265914,
 0.00404276,0.00070825,-0.00153760,0.00396087,-0.00009141,0.00030373,-0
 .00081356,-0.00007225,0.00030791,-0.00106676,0.00111569,-0.00265920,0.
 00802908,-0.00021932,-0.00004498,-0.00040943,-0.00481594,-0.00478467,0
 .00491271,-0.00028082,0.00124236,-0.00471734,-0.02058435,-0.02452544,-
 0.04172138,0.00008139,0.00012226,0.00066819,0.00000089,0.00003400,-0.0
 0028576,-0.00045349,0.00062364,-0.00235213,0.00000138,-0.00000084,0.00
 000287,0.00000281,-0.00000738,-0.00000487,-0.00000689,0.00000380,-0.00
 000123,0.00000055,0.00000079,0.00000107,0.00000538,0.00000091,-0.00000
 017,-0.00000023,0.00000008,0.00000061,0.00000042,-0.00000162,0.0000003
 1,-0.00000017,0.00000008,0.00000040,0.00000041,0.00000184,-0.00000151,
 -0.00000647,-0.00000498,0.00001020,0.00000217,0.00000711,0.00000298,-0
 .00000759,-0.00000425,-0.00000199,0.02122515,0.02836586,0.02962459,0.0
 0004432,0.00008940,-0.00001393,0.00003011,0.00000702,0.00000424,-0.000
 34177,0.00033815,-0.00006784,-0.00011607,-0.00015629,0.00002444,0.0000
 0861,0.00004179,0.00000019,-0.00006525,0.00002478,-0.00000129,0.000034
 22,0.00004733,0.00000167,-0.00002862,-0.00001641,0.00000020,-0.0000042
 5,0.00000321,0.00000078,-0.00001967,-0.00004638,-0.00000082,-0.0000020
 1,0.00000194,-0.00000036,0.00000457,0.00001242,-0.00000329,-0.00000094
 ,0.00001288,0.00000036,-0.00002320,0.00002384,0.00000600,0.00002922,-0
 .00002040,-0.00000460,-0.00000099,-0.00000048,-0.00000076,-0.00003035,
 -0.00000627,0.00000021,-0.00000032,-0.00000021,-0.00000026,0.00000161,
 0.00002054,0.00000451,0.00000090,-0.00000011,-0.00000010,0.00000273,-0
 .00001790,-0.00000377,0.00003484,0.00001791,-0.00000087,-0.00000510,-0
 .00002495,-0.00000225,0.00001448,0.00000750,0.00000123,-0.01695288,-0.
 02172247,0.00334155,-0.00304179,0.00309602,-0.00106051,0.00004487,0.00
 052298,-0.00004615,0.00006138,-0.00012815,0.00009616,0.00001770,0.0022
 0557,-0.00097406,0.00042078,0.00044859,-0.00007675,0.01105631,0.007447
 41,-0.00123101,0.00069839,-0.00021112,0.00037469,-0.20648776,-0.144252
 07,0.02036980,-0.00035598,-0.00103831,0.00008647,-0.00023068,0.0002155
 0,-0.00004168,0.00233654,-0.00115137,0.00044242,-0.00000080,-0.0000001
 1,0.00000023,0.21286686,-0.00002136,-0.00000744,-0.00000980,0.00000516
 ,0.00000464,-0.00000549,0.00016571,-0.00019589,0.00011061,0.00002520,0
 .00002502,-0.00005657,0.00002732,-0.00001619,0.00000107,-0.00002080,0.
 00003616,0.00000546,0.00004668,0.00009239,-0.00000140,-0.00002144,-0.0
 0003443,0.00000099,0.00000070,0.00000357,0.00000009,-0.00004856,-0.000
 05550,0.00000235,0.00000168,0.00000266,0.00000014,0.00001508,-0.000012
 53,0.00001909,0.00000336,0.00000234,0.00000264,-0.00000838,0.00000792,
 -0.00000141,0.00001121,-0.00000624,-0.00000062,-0.00000072,-0.00000028
 ,-0.00000038,-0.00001134,-0.00000145,0.00000029,0.00000035,-0.00000005
 ,-0.00000002,0.00000064,0.00000770,0.00000130,0.00000044,0.00000005,0.
 00000002,-0.00000025,-0.00000715,-0.00000234,0.00000952,-0.00000045,0.
 00000063,-0.00000095,-0.00000630,-0.00000039,0.00000070,0.00000186,0.0
 0000037,0.00786274,0.00983824,-0.00082559,0.00202312,-0.00021415,0.001
 02481,0.00069370,-0.00029934,-0.00008619,-0.00009858,-0.00001517,-0.00
 024023,0.00249277,-0.00371494,0.00269272,-0.00107856,-0.00066646,0.000
 04819,-0.02172008,-0.01318630,0.00266160,0.00008545,0.00083677,-0.0011
 9907,-0.14461296,-0.19851145,0.02487159,0.00061869,0.00047581,0.000121
 25,0.00000032,0.00006900,-0.00008449,-0.00065473,0.00073865,-0.0006860
 4,-0.00000007,-0.00000003,0.00000030,0.15420821,0.20480897,-0.00002781
 ,-0.00001494,0.00003193,0.00002406,0.00001684,-0.00002011,-0.00015875,
 0.00016800,0.00034506,0.00002843,-0.00004878,-0.00025827,0.00001511,-0
 .00000873,-0.00002257,-0.00000087,0.00000741,0.00003125,0.00000324,0.0
 0003073,0.00000046,-0.00001378,0.00000097,-0.00000166,-0.00001352,-0.0
 0001808,-0.00000011,-0.00000972,-0.00002520,-0.00001859,-0.00000070,0.
 00000122,0.00000612,0.00001479,-0.00000557,0.00002507,-0.00000135,-0.0
 0000036,0.00000325,-0.00000141,0.00000571,-0.00000511,0.00000462,-0.00
 000221,-0.00000082,-0.00000030,-0.00000034,0.00000112,-0.00000257,-0.0
 0000121,-0.00000057,0.00000019,-0.00000014,0.00000059,-0.00000053,-0.0
 0000001,-0.00000004,0.00000018,-0.00000013,0.00000036,-0.00000156,-0.0
 0000035,-0.00000112,0.00000275,0.00000427,0.00001039,-0.00000381,-0.00
 000649,0.00000336,0.00001024,0.00000509,-0.00000282,-0.00325035,-0.002
 66015,0.00404206,-0.00070587,0.00153493,0.00396135,0.00008849,-0.00030
 154,-0.00081420,0.00007236,-0.00030758,-0.00106682,-0.00111189,0.00265
 882,0.00802956,0.00021924,0.00004500,-0.00040943,0.00481564,0.00478282
 ,0.00491308,0.00028076,-0.00124238,-0.00471732,0.02058300,0.02452666,-
 0.04172153,-0.00008677,-0.00012238,0.00066771,-0.00000349,-0.00003313,
 -0.00028578,0.00045692,-0.00062309,-0.00235130,-0.00000011,-0.00000017
 ,0.00000095,-0.02122488,-0.02836550,0.02962453||-0.00000017,-0.0000005
 5,0.00000018,-0.00000063,0.00000051,-0.00000111,0.00000005,-0.00000017
 ,-0.00000037,-0.00000005,0.00000010,-0.00000003,0.00000002,-0.00000006
 ,0.00000029,-0.00000004,0.00000015,0.00000040,0.00000072,-0.00000051,0
 .00000102,0.00000015,0.00000059,-0.00000075,-0.00000052,-0.00000020,0.
 00000035,0.00000047,0.00000019,-0.00000035,0.00000036,0.00000025,0.000
 00006,-0.00000032,-0.00000029,0.00000024,0.,0.00000093,0.,-0.00000046,
 0.00000064,-0.00000022,0.00000044,0.00000063,0.00000007,0.00000032,0.0
 0000068,-0.00000001,0.00000025,0.00000106,0.00000001,0.00000053,0.0000
 0101,0.00000002,0.00000020,0.00000114,0.,0.00000019,0.00000124,0.,-0.0
 0000003,0.00000119,0.00000005,0.00000038,0.00000014,0.00000012,-0.0000
 0044,0.00000066,-0.00000002,-0.00000018,0.00000077,0.00000002,-0.00000
 003,-0.00000093,0.00000001,0.00000047,-0.00000062,-0.00000016,-0.00000
 047,-0.00000064,0.00000008,-0.00000039,-0.00000068,-0.00000003,-0.0000
 0024,-0.00000105,0.00000002,-0.00000053,-0.00000101,0.00000002,-0.0000
 0019,-0.00000114,0.,-0.00000019,-0.00000124,0.,0.00000003,-0.00000119,
 0.00000006,-0.00000037,-0.00000019,0.00000007,0.00000047,-0.00000061,0
 .00000009,0.00000018,-0.00000079,-0.00000007,-0.00000020,0.00000123,-0
 .00000003,0.00000020,-0.00000123,-0.00000003|||@


 SEEN ON A WALL AT THE UNIVERSITY OF ILLINOIS AT CHICAGO CIRCLE:

 TO DO IS TO BE  -- SOCRATES
 TO BE IS TO DO  -- SARTRE
 OO BE DO BE DO  -- SINATRA
 Job cpu time:  0 days  9 hours  0 minutes 51.0 seconds.
 File lengths (MBytes):  RWF=   2475 Int=      0 D2E=      0 Chk=     30 Scr=      1
 Normal termination of Gaussian 09 at Tue Sep 19 21:31:14 2023.
