 Entering Link 1 = C:\G09W\l1.exe PID=     11168.
  
 Copyright (c) 1988,1990,1992,1993,1995,1998,2003,2009,2010,
            Gaussian, Inc.  All Rights Reserved.
  
 This is part of the Gaussian(R) 09 program.  It is based on
 the Gaussian(R) 03 system (copyright 2003, Gaussian, Inc.),
 the Gaussian(R) 98 system (copyright 1998, Gaussian, Inc.),
 the Gaussian(R) 94 system (copyright 1995, Gaussian, Inc.),
 the Gaussian 92(TM) system (copyright 1992, Gaussian, Inc.),
 the Gaussian 90(TM) system (copyright 1990, Gaussian, Inc.),
 the Gaussian 88(TM) system (copyright 1988, Gaussian, Inc.),
 the Gaussian 86(TM) system (copyright 1986, Carnegie Mellon
 University), and the Gaussian 82(TM) system (copyright 1983,
 Carnegie Mellon University). Gaussian is a federally registered
 trademark of Gaussian, Inc.
  
 This software contains proprietary and confidential information,
 including trade secrets, belonging to Gaussian, Inc.
  
 This software is provided under written license and may be
 used, copied, transmitted, or stored only in accord with that
 written license.
  
 The following legend is applicable only to US Government
 contracts under FAR:
  
                    RESTRICTED RIGHTS LEGEND
  
 Use, reproduction and disclosure by the US Government is
 subject to restrictions as set forth in subparagraphs (a)
 and (c) of the Commercial Computer Software - Restricted
 Rights clause in FAR 52.227-19.
  
 Gaussian, Inc.
 340 Quinnipiac St., Bldg. 40, Wallingford CT 06492
  
  
 ---------------------------------------------------------------
 Warning -- This program may not be used in any manner that
 competes with the business of Gaussian, Inc. or will provide
 assistance to any competitor of Gaussian, Inc.  The licensee
 of this program is prohibited from giving any competitor of
 Gaussian, Inc. access to this program.  By using this program,
 the user acknowledges that Gaussian, Inc. is engaged in the
 business of creating and licensing software in the field of
 computational chemistry and represents and warrants to the
 licensee that it is not a competitor of Gaussian, Inc. and that
 it will not use this program in any manner prohibited above.
 ---------------------------------------------------------------
  

 Cite this work as:
 Gaussian 09, Revision B.01,
 M. J. Frisch, G. W. Trucks, H. B. Schlegel, G. E. Scuseria, 
 M. A. Robb, J. R. Cheeseman, G. Scalmani, V. Barone, B. Mennucci, 
 G. A. Petersson, H. Nakatsuji, M. Caricato, X. Li, H. P. Hratchian, 
 A. F. Izmaylov, J. Bloino, G. Zheng, J. L. Sonnenberg, M. Hada, 
 M. Ehara, K. Toyota, R. Fukuda, J. Hasegawa, M. Ishida, T. Nakajima, 
 Y. Honda, O. Kitao, H. Nakai, T. Vreven, J. A. Montgomery, Jr., 
 J. E. Peralta, F. Ogliaro, M. Bearpark, J. J. Heyd, E. Brothers, 
 K. N. Kudin, V. N. Staroverov, T. Keith, R. Kobayashi, J. Normand, 
 K. Raghavachari, A. Rendell, J. C. Burant, S. S. Iyengar, J. Tomasi, 
 M. Cossi, N. Rega, J. M. Millam, M. Klene, J. E. Knox, J. B. Cross, 
 V. Bakken, C. Adamo, J. Jaramillo, R. Gomperts, R. E. Stratmann, 
 O. Yazyev, A. J. Austin, R. Cammi, C. Pomelli, J. W. Ochterski, 
 R. L. Martin, K. Morokuma, V. G. Zakrzewski, G. A. Voth, 
 P. Salvador, J. J. Dannenberg, S. Dapprich, A. D. Daniels, 
 O. Farkas, J. B. Foresman, J. V. Ortiz, J. Cioslowski, 
 and D. J. Fox, Gaussian, Inc., Wallingford CT, 2010.
 
 ******************************************
 Gaussian 09:  IA32W-G09RevB.01 12-Aug-2010
                27-Jul-2023 
 ******************************************
 %nprocshared=6
 Will use up to    6 processors via shared memory.
 %chk=G:\Meu Drive\POS-DOC-IME\SUBSTITUINTES-DOADORES\DPP-substituido\DPP-SUB-3-C
 ATION-CONT.chk
 ----------------------------------------------
 # opt freq b3lyp/6-31+g(d,p) geom=connectivity
 ----------------------------------------------
 1/14=-1,18=20,19=15,26=3,38=1,57=2/1,3;
 2/9=110,12=2,17=6,18=5,40=1/2;
 3/5=1,6=6,7=111,11=2,16=1,25=1,30=1,71=1,74=-5/1,2,3;
 4//1;
 5/5=2,38=5/2;
 6/7=2,8=2,9=2,10=2,28=1/1;
 7//1,2,3,16;
 1/14=-1,18=20,19=15/3(2);
 2/9=110/2;
 99//99;
 2/9=110/2;
 3/5=1,6=6,7=111,11=2,16=1,25=1,30=1,71=1,74=-5/1,2,3;
 4/5=5,16=3/1;
 5/5=2,38=5/2;
 7//1,2,3,16;
 1/14=-1,18=20,19=15/3(-5);
 2/9=110/2;
 6/7=2,8=2,9=2,10=2,19=2,28=1/1;
 99/9=1/99;
 -------
 Energy:
 -------
 Symbolic Z-matrix:
 Charge =  1 Multiplicity = 2
 N                    -0.99038  -1.80921   0.01111 
 C                     0.4233   -1.6866    0.0777 
 C                    -1.64705  -0.60279  -0.06646 
 C                    -0.61583   0.38632  -0.05166 
 C                     0.63181  -0.2349    0.03451 
 C                     1.66368   0.75461   0.05188 
 C                    -0.40649   1.8389   -0.09354 
 N                     1.00851   1.96046  -0.02501 
 O                     1.18133  -2.63814   0.1507 
 O                    -1.16244   2.79077  -0.16688 
 H                     1.44265   2.87295  -0.0374 
 H                    -1.42317  -2.72213   0.023 
 C                     5.88034   0.30498   0.28788 
 C                     5.04084  -0.83171   0.28213 
 C                     3.66976  -0.67326   0.20484 
 H                     3.03688  -1.5551    0.20142 
 C                     3.07953   0.61772   0.13021 
 C                     3.9437    1.75176   0.13725 
 H                     3.5432    2.75893   0.08312 
 C                     5.3067    1.60211   0.21403 
 H                     5.97076   2.45928   0.22099 
 H                     5.45649  -1.8296    0.33793 
 O                     7.2081    0.26936   0.36054 
 C                     7.91673  -0.99844   0.45209 
 H                     7.66538  -1.59867  -0.43083 
 H                     7.5731   -1.5184    1.35342 
 C                     9.40575  -0.70269   0.51565 
 H                     9.90938  -1.65659   0.72196 
 H                     9.60092  -0.05555   1.38008 
 C                     9.98302  -0.07664  -0.76145 
 H                     9.46289   0.86551  -0.97156 
 H                     9.77909  -0.74197  -1.61192 
 C                     11.49065   0.17963  -0.66079 
 H                     12.04237  -0.75053  -0.4832 
 H                     11.87681   0.62395  -1.58326 
 H                     11.72228   0.86648   0.16117 
 C                    -5.86735  -0.16927  -0.2945 
 C                    -5.29413  -1.46311  -0.2148 
 C                    -3.92221  -1.59693  -0.14099 
 H                    -3.51696  -2.60207  -0.08144 
 C                    -3.06357  -0.4651   -0.14235 
 C                    -3.65969   0.82821  -0.22316 
 H                    -3.03124   1.71286  -0.22596 
 C                    -5.02586   0.96933  -0.29778 
 H                    -5.48556   1.94948  -0.36024 
 H                    -5.91824  -2.34735  -0.2116 
 O                    -7.17362   0.07249  -0.37045 
 C                    -8.13875  -1.01555  -0.37799 
 H                    -8.01201  -1.59639   0.5439 
 H                    -7.92839  -1.65597  -1.2422 
 C                    -9.53065  -0.41185  -0.46309 
 H                    -10.23029  -1.24812  -0.59457 
 H                    -9.59767   0.19557  -1.37444 
 C                    -9.93791   0.4178    0.76258 
 H                    -9.22997   1.24475   0.89281 
 H                    -9.85731  -0.20704   1.66299 
 C                    -11.36207   0.97259   0.64946 
 H                    -12.09756   0.16604   0.55089 
 H                    -11.62773   1.55803   1.535 
 H                    -11.46525   1.6263   -0.22405 
 

 GradGradGradGradGradGradGradGradGradGradGradGradGradGradGradGradGradGrad
 Berny optimization.
 Initialization pass.
                           ----------------------------
                           !    Initial Parameters    !
                           ! (Angstroms and Degrees)  !
 --------------------------                            --------------------------
 ! Name  Definition              Value          Derivative Info.                !
 --------------------------------------------------------------------------------
 ! R1    R(1,2)                  1.4205         estimate D2E/DX2                !
 ! R2    R(1,3)                  1.3758         estimate D2E/DX2                !
 ! R3    R(1,12)                 1.0104         estimate D2E/DX2                !
 ! R4    R(2,5)                  1.4672         estimate D2E/DX2                !
 ! R5    R(2,9)                  1.2188         estimate D2E/DX2                !
 ! R6    R(3,4)                  1.429          estimate D2E/DX2                !
 ! R7    R(3,41)                 1.4252         estimate D2E/DX2                !
 ! R8    R(4,5)                  1.3964         estimate D2E/DX2                !
 ! R9    R(4,7)                  1.4682         estimate D2E/DX2                !
 ! R10   R(5,6)                  1.4297         estimate D2E/DX2                !
 ! R11   R(6,8)                  1.3745         estimate D2E/DX2                !
 ! R12   R(6,17)                 1.4246         estimate D2E/DX2                !
 ! R13   R(7,8)                  1.4219         estimate D2E/DX2                !
 ! R14   R(7,10)                 1.2177         estimate D2E/DX2                !
 ! R15   R(8,11)                 1.0106         estimate D2E/DX2                !
 ! R16   R(13,14)                1.4131         estimate D2E/DX2                !
 ! R17   R(13,20)                1.4202         estimate D2E/DX2                !
 ! R18   R(13,23)                1.3302         estimate D2E/DX2                !
 ! R19   R(14,15)                1.3824         estimate D2E/DX2                !
 ! R20   R(14,22)                1.0824         estimate D2E/DX2                !
 ! R21   R(15,16)                1.0854         estimate D2E/DX2                !
 ! R22   R(15,17)                1.4215         estimate D2E/DX2                !
 ! R23   R(17,18)                1.4258         estimate D2E/DX2                !
 ! R24   R(18,19)                1.0852         estimate D2E/DX2                !
 ! R25   R(18,20)                1.3733         estimate D2E/DX2                !
 ! R26   R(20,21)                1.0843         estimate D2E/DX2                !
 ! R27   R(23,24)                1.4553         estimate D2E/DX2                !
 ! R28   R(24,25)                1.0968         estimate D2E/DX2                !
 ! R29   R(24,26)                1.0958         estimate D2E/DX2                !
 ! R30   R(24,27)                1.5194         estimate D2E/DX2                !
 ! R31   R(27,28)                1.0982         estimate D2E/DX2                !
 ! R32   R(27,29)                1.0973         estimate D2E/DX2                !
 ! R33   R(27,30)                1.535          estimate D2E/DX2                !
 ! R34   R(30,31)                1.0965         estimate D2E/DX2                !
 ! R35   R(30,32)                1.0989         estimate D2E/DX2                !
 ! R36   R(30,33)                1.5326         estimate D2E/DX2                !
 ! R37   R(33,34)                1.096          estimate D2E/DX2                !
 ! R38   R(33,35)                1.0943         estimate D2E/DX2                !
 ! R39   R(33,36)                1.0959         estimate D2E/DX2                !
 ! R40   R(37,38)                1.4174         estimate D2E/DX2                !
 ! R41   R(37,44)                1.4158         estimate D2E/DX2                !
 ! R42   R(37,47)                1.3306         estimate D2E/DX2                !
 ! R43   R(38,39)                1.3804         estimate D2E/DX2                !
 ! R44   R(38,46)                1.0823         estimate D2E/DX2                !
 ! R45   R(39,40)                1.0854         estimate D2E/DX2                !
 ! R46   R(39,41)                1.4207         estimate D2E/DX2                !
 ! R47   R(41,42)                1.4264         estimate D2E/DX2                !
 ! R48   R(42,43)                1.0852         estimate D2E/DX2                !
 ! R49   R(42,44)                1.3755         estimate D2E/DX2                !
 ! R50   R(44,45)                1.0844         estimate D2E/DX2                !
 ! R51   R(47,48)                1.4544         estimate D2E/DX2                !
 ! R52   R(48,49)                1.097          estimate D2E/DX2                !
 ! R53   R(48,50)                1.096          estimate D2E/DX2                !
 ! R54   R(48,51)                1.5196         estimate D2E/DX2                !
 ! R55   R(51,52)                1.0982         estimate D2E/DX2                !
 ! R56   R(51,53)                1.0973         estimate D2E/DX2                !
 ! R57   R(51,54)                1.5351         estimate D2E/DX2                !
 ! R58   R(54,55)                1.0963         estimate D2E/DX2                !
 ! R59   R(54,56)                1.0989         estimate D2E/DX2                !
 ! R60   R(54,57)                1.5326         estimate D2E/DX2                !
 ! R61   R(57,58)                1.096          estimate D2E/DX2                !
 ! R62   R(57,59)                1.0943         estimate D2E/DX2                !
 ! R63   R(57,60)                1.0959         estimate D2E/DX2                !
 ! A1    A(2,1,3)              113.7012         estimate D2E/DX2                !
 ! A2    A(2,1,12)             120.2456         estimate D2E/DX2                !
 ! A3    A(3,1,12)             126.0532         estimate D2E/DX2                !
 ! A4    A(1,2,5)              103.0289         estimate D2E/DX2                !
 ! A5    A(1,2,9)              123.6681         estimate D2E/DX2                !
 ! A6    A(5,2,9)              133.3031         estimate D2E/DX2                !
 ! A7    A(1,3,4)              105.1855         estimate D2E/DX2                !
 ! A8    A(1,3,41)             124.2032         estimate D2E/DX2                !
 ! A9    A(4,3,41)             130.6113         estimate D2E/DX2                !
 ! A10   A(3,4,5)              109.7233         estimate D2E/DX2                !
 ! A11   A(3,4,7)              141.9455         estimate D2E/DX2                !
 ! A12   A(5,4,7)              108.3312         estimate D2E/DX2                !
 ! A13   A(2,5,4)              108.3612         estimate D2E/DX2                !
 ! A14   A(2,5,6)              141.9025         estimate D2E/DX2                !
 ! A15   A(4,5,6)              109.7362         estimate D2E/DX2                !
 ! A16   A(5,6,8)              105.2171         estimate D2E/DX2                !
 ! A17   A(5,6,17)             130.6507         estimate D2E/DX2                !
 ! A18   A(8,6,17)             124.1322         estimate D2E/DX2                !
 ! A19   A(4,7,8)              103.0089         estimate D2E/DX2                !
 ! A20   A(4,7,10)             133.3584         estimate D2E/DX2                !
 ! A21   A(8,7,10)             123.6327         estimate D2E/DX2                !
 ! A22   A(6,8,7)              113.7066         estimate D2E/DX2                !
 ! A23   A(6,8,11)             126.0205         estimate D2E/DX2                !
 ! A24   A(7,8,11)             120.2727         estimate D2E/DX2                !
 ! A25   A(14,13,20)           119.6373         estimate D2E/DX2                !
 ! A26   A(14,13,23)           124.8666         estimate D2E/DX2                !
 ! A27   A(20,13,23)           115.496          estimate D2E/DX2                !
 ! A28   A(13,14,15)           119.8186         estimate D2E/DX2                !
 ! A29   A(13,14,22)           120.8795         estimate D2E/DX2                !
 ! A30   A(15,14,22)           119.3019         estimate D2E/DX2                !
 ! A31   A(14,15,16)           119.0358         estimate D2E/DX2                !
 ! A32   A(14,15,17)           121.2567         estimate D2E/DX2                !
 ! A33   A(16,15,17)           119.7075         estimate D2E/DX2                !
 ! A34   A(6,17,15)            120.1874         estimate D2E/DX2                !
 ! A35   A(6,17,18)            121.7499         estimate D2E/DX2                !
 ! A36   A(15,17,18)           118.0627         estimate D2E/DX2                !
 ! A37   A(17,18,19)           120.9471         estimate D2E/DX2                !
 ! A38   A(17,18,20)           121.0064         estimate D2E/DX2                !
 ! A39   A(19,18,20)           118.0464         estimate D2E/DX2                !
 ! A40   A(13,20,18)           120.2182         estimate D2E/DX2                !
 ! A41   A(13,20,21)           118.314          estimate D2E/DX2                !
 ! A42   A(18,20,21)           121.4679         estimate D2E/DX2                !
 ! A43   A(13,23,24)           120.8502         estimate D2E/DX2                !
 ! A44   A(23,24,25)           108.332          estimate D2E/DX2                !
 ! A45   A(23,24,26)           108.2046         estimate D2E/DX2                !
 ! A46   A(23,24,27)           108.0747         estimate D2E/DX2                !
 ! A47   A(25,24,26)           109.304          estimate D2E/DX2                !
 ! A48   A(25,24,27)           111.3935         estimate D2E/DX2                !
 ! A49   A(26,24,27)           111.4228         estimate D2E/DX2                !
 ! A50   A(24,27,28)           106.7502         estimate D2E/DX2                !
 ! A51   A(24,27,29)           108.7865         estimate D2E/DX2                !
 ! A52   A(24,27,30)           114.4012         estimate D2E/DX2                !
 ! A53   A(28,27,29)           106.4214         estimate D2E/DX2                !
 ! A54   A(28,27,30)           109.7602         estimate D2E/DX2                !
 ! A55   A(29,27,30)           110.3644         estimate D2E/DX2                !
 ! A56   A(27,30,31)           109.3583         estimate D2E/DX2                !
 ! A57   A(27,30,32)           109.0979         estimate D2E/DX2                !
 ! A58   A(27,30,33)           112.551          estimate D2E/DX2                !
 ! A59   A(31,30,32)           106.4933         estimate D2E/DX2                !
 ! A60   A(31,30,33)           109.6053         estimate D2E/DX2                !
 ! A61   A(32,30,33)           109.5505         estimate D2E/DX2                !
 ! A62   A(30,33,34)           111.3428         estimate D2E/DX2                !
 ! A63   A(30,33,35)           111.08           estimate D2E/DX2                !
 ! A64   A(30,33,36)           111.2223         estimate D2E/DX2                !
 ! A65   A(34,33,35)           107.6712         estimate D2E/DX2                !
 ! A66   A(34,33,36)           107.6969         estimate D2E/DX2                !
 ! A67   A(35,33,36)           107.6493         estimate D2E/DX2                !
 ! A68   A(38,37,44)           119.5951         estimate D2E/DX2                !
 ! A69   A(38,37,47)           124.4779         estimate D2E/DX2                !
 ! A70   A(44,37,47)           115.9269         estimate D2E/DX2                !
 ! A71   A(37,38,39)           119.5671         estimate D2E/DX2                !
 ! A72   A(37,38,46)           120.8462         estimate D2E/DX2                !
 ! A73   A(39,38,46)           119.5868         estimate D2E/DX2                !
 ! A74   A(38,39,40)           117.6311         estimate D2E/DX2                !
 ! A75   A(38,39,41)           121.5601         estimate D2E/DX2                !
 ! A76   A(40,39,41)           120.8089         estimate D2E/DX2                !
 ! A77   A(3,41,39)            121.5796         estimate D2E/DX2                !
 ! A78   A(3,41,42)            120.3973         estimate D2E/DX2                !
 ! A79   A(39,41,42)           118.0232         estimate D2E/DX2                !
 ! A80   A(41,42,43)           119.8203         estimate D2E/DX2                !
 ! A81   A(41,42,44)           120.7441         estimate D2E/DX2                !
 ! A82   A(43,42,44)           119.4356         estimate D2E/DX2                !
 ! A83   A(37,44,42)           120.5105         estimate D2E/DX2                !
 ! A84   A(37,44,45)           118.3638         estimate D2E/DX2                !
 ! A85   A(42,44,45)           121.1257         estimate D2E/DX2                !
 ! A86   A(37,47,48)           121.0519         estimate D2E/DX2                !
 ! A87   A(47,48,49)           108.3661         estimate D2E/DX2                !
 ! A88   A(47,48,50)           108.2907         estimate D2E/DX2                !
 ! A89   A(47,48,51)           108.1147         estimate D2E/DX2                !
 ! A90   A(49,48,50)           109.3349         estimate D2E/DX2                !
 ! A91   A(49,48,51)           111.3006         estimate D2E/DX2                !
 ! A92   A(50,48,51)           111.3332         estimate D2E/DX2                !
 ! A93   A(48,51,52)           106.7212         estimate D2E/DX2                !
 ! A94   A(48,51,53)           108.8072         estimate D2E/DX2                !
 ! A95   A(48,51,54)           114.3944         estimate D2E/DX2                !
 ! A96   A(52,51,53)           106.4502         estimate D2E/DX2                !
 ! A97   A(52,51,54)           109.7627         estimate D2E/DX2                !
 ! A98   A(53,51,54)           110.3507         estimate D2E/DX2                !
 ! A99   A(51,54,55)           109.341          estimate D2E/DX2                !
 ! A100  A(51,54,56)           109.1134         estimate D2E/DX2                !
 ! A101  A(51,54,57)           112.535          estimate D2E/DX2                !
 ! A102  A(55,54,56)           106.5098         estimate D2E/DX2                !
 ! A103  A(55,54,57)           109.6196         estimate D2E/DX2                !
 ! A104  A(56,54,57)           109.5395         estimate D2E/DX2                !
 ! A105  A(54,57,58)           111.3367         estimate D2E/DX2                !
 ! A106  A(54,57,59)           111.071          estimate D2E/DX2                !
 ! A107  A(54,57,60)           111.2384         estimate D2E/DX2                !
 ! A108  A(58,57,59)           107.6726         estimate D2E/DX2                !
 ! A109  A(58,57,60)           107.704          estimate D2E/DX2                !
 ! A110  A(59,57,60)           107.6396         estimate D2E/DX2                !
 ! D1    D(3,1,2,5)             -0.0034         estimate D2E/DX2                !
 ! D2    D(3,1,2,9)           -179.9853         estimate D2E/DX2                !
 ! D3    D(12,1,2,5)           179.9935         estimate D2E/DX2                !
 ! D4    D(12,1,2,9)             0.0116         estimate D2E/DX2                !
 ! D5    D(2,1,3,4)              0.0233         estimate D2E/DX2                !
 ! D6    D(2,1,3,41)          -179.9779         estimate D2E/DX2                !
 ! D7    D(12,1,3,4)          -179.9734         estimate D2E/DX2                !
 ! D8    D(12,1,3,41)            0.0253         estimate D2E/DX2                !
 ! D9    D(1,2,5,4)             -0.0187         estimate D2E/DX2                !
 ! D10   D(1,2,5,6)            179.8674         estimate D2E/DX2                !
 ! D11   D(9,2,5,4)            179.9606         estimate D2E/DX2                !
 ! D12   D(9,2,5,6)             -0.1533         estimate D2E/DX2                !
 ! D13   D(1,3,4,5)             -0.0349         estimate D2E/DX2                !
 ! D14   D(1,3,4,7)           -179.9005         estimate D2E/DX2                !
 ! D15   D(41,3,4,5)           179.9665         estimate D2E/DX2                !
 ! D16   D(41,3,4,7)             0.1009         estimate D2E/DX2                !
 ! D17   D(1,3,41,39)            0.1069         estimate D2E/DX2                !
 ! D18   D(1,3,41,42)         -179.8586         estimate D2E/DX2                !
 ! D19   D(4,3,41,39)         -179.8947         estimate D2E/DX2                !
 ! D20   D(4,3,41,42)            0.1398         estimate D2E/DX2                !
 ! D21   D(3,4,5,2)              0.0339         estimate D2E/DX2                !
 ! D22   D(3,4,5,6)           -179.8915         estimate D2E/DX2                !
 ! D23   D(7,4,5,2)            179.9466         estimate D2E/DX2                !
 ! D24   D(7,4,5,6)              0.0212         estimate D2E/DX2                !
 ! D25   D(3,4,7,8)            179.8382         estimate D2E/DX2                !
 ! D26   D(3,4,7,10)            -0.1526         estimate D2E/DX2                !
 ! D27   D(5,4,7,8)             -0.0284         estimate D2E/DX2                !
 ! D28   D(5,4,7,10)           179.9807         estimate D2E/DX2                !
 ! D29   D(2,5,6,8)           -179.8896         estimate D2E/DX2                !
 ! D30   D(2,5,6,17)             0.0671         estimate D2E/DX2                !
 ! D31   D(4,5,6,8)             -0.0045         estimate D2E/DX2                !
 ! D32   D(4,5,6,17)           179.9523         estimate D2E/DX2                !
 ! D33   D(5,6,8,7)             -0.0151         estimate D2E/DX2                !
 ! D34   D(5,6,8,11)          -179.8686         estimate D2E/DX2                !
 ! D35   D(17,6,8,7)          -179.9755         estimate D2E/DX2                !
 ! D36   D(17,6,8,11)            0.171          estimate D2E/DX2                !
 ! D37   D(5,6,17,15)            0.1401         estimate D2E/DX2                !
 ! D38   D(5,6,17,18)         -179.8288         estimate D2E/DX2                !
 ! D39   D(8,6,17,15)         -179.9103         estimate D2E/DX2                !
 ! D40   D(8,6,17,18)            0.1207         estimate D2E/DX2                !
 ! D41   D(4,7,8,6)              0.0272         estimate D2E/DX2                !
 ! D42   D(4,7,8,11)           179.89           estimate D2E/DX2                !
 ! D43   D(10,7,8,6)          -179.9808         estimate D2E/DX2                !
 ! D44   D(10,7,8,11)           -0.118          estimate D2E/DX2                !
 ! D45   D(20,13,14,15)         -0.0014         estimate D2E/DX2                !
 ! D46   D(20,13,14,22)       -179.9792         estimate D2E/DX2                !
 ! D47   D(23,13,14,15)        179.9064         estimate D2E/DX2                !
 ! D48   D(23,13,14,22)         -0.0713         estimate D2E/DX2                !
 ! D49   D(14,13,20,18)         -0.0086         estimate D2E/DX2                !
 ! D50   D(14,13,20,21)        179.9405         estimate D2E/DX2                !
 ! D51   D(23,13,20,18)       -179.9249         estimate D2E/DX2                !
 ! D52   D(23,13,20,21)          0.0243         estimate D2E/DX2                !
 ! D53   D(14,13,23,24)         -0.4333         estimate D2E/DX2                !
 ! D54   D(20,13,23,24)        179.478          estimate D2E/DX2                !
 ! D55   D(13,14,15,16)       -179.9952         estimate D2E/DX2                !
 ! D56   D(13,14,15,17)          0.0071         estimate D2E/DX2                !
 ! D57   D(22,14,15,16)         -0.0171         estimate D2E/DX2                !
 ! D58   D(22,14,15,17)        179.9851         estimate D2E/DX2                !
 ! D59   D(14,15,17,6)        -179.9728         estimate D2E/DX2                !
 ! D60   D(14,15,17,18)         -0.0028         estimate D2E/DX2                !
 ! D61   D(16,15,17,6)           0.0294         estimate D2E/DX2                !
 ! D62   D(16,15,17,18)        179.9995         estimate D2E/DX2                !
 ! D63   D(6,17,18,19)           0.0271         estimate D2E/DX2                !
 ! D64   D(6,17,18,20)         179.9621         estimate D2E/DX2                !
 ! D65   D(15,17,18,19)       -179.9424         estimate D2E/DX2                !
 ! D66   D(15,17,18,20)         -0.0074         estimate D2E/DX2                !
 ! D67   D(17,18,20,13)          0.0131         estimate D2E/DX2                !
 ! D68   D(17,18,20,21)       -179.9344         estimate D2E/DX2                !
 ! D69   D(19,18,20,13)        179.9499         estimate D2E/DX2                !
 ! D70   D(19,18,20,21)          0.0024         estimate D2E/DX2                !
 ! D71   D(13,23,24,25)         59.0312         estimate D2E/DX2                !
 ! D72   D(13,23,24,26)        -59.3653         estimate D2E/DX2                !
 ! D73   D(13,23,24,27)        179.852          estimate D2E/DX2                !
 ! D74   D(23,24,27,28)        172.4252         estimate D2E/DX2                !
 ! D75   D(23,24,27,29)         57.9551         estimate D2E/DX2                !
 ! D76   D(23,24,27,30)        -65.9584         estimate D2E/DX2                !
 ! D77   D(25,24,27,28)        -68.6809         estimate D2E/DX2                !
 ! D78   D(25,24,27,29)        176.849          estimate D2E/DX2                !
 ! D79   D(25,24,27,30)         52.9355         estimate D2E/DX2                !
 ! D80   D(26,24,27,28)         53.6701         estimate D2E/DX2                !
 ! D81   D(26,24,27,29)        -60.8            estimate D2E/DX2                !
 ! D82   D(26,24,27,30)        175.2865         estimate D2E/DX2                !
 ! D83   D(24,27,30,31)         58.9959         estimate D2E/DX2                !
 ! D84   D(24,27,30,32)        -57.1138         estimate D2E/DX2                !
 ! D85   D(24,27,30,33)       -178.9321         estimate D2E/DX2                !
 ! D86   D(28,27,30,31)        178.9453         estimate D2E/DX2                !
 ! D87   D(28,27,30,32)         62.8357         estimate D2E/DX2                !
 ! D88   D(28,27,30,33)        -58.9826         estimate D2E/DX2                !
 ! D89   D(29,27,30,31)        -64.0695         estimate D2E/DX2                !
 ! D90   D(29,27,30,32)        179.8208         estimate D2E/DX2                !
 ! D91   D(29,27,30,33)         58.0026         estimate D2E/DX2                !
 ! D92   D(27,30,33,34)         59.9134         estimate D2E/DX2                !
 ! D93   D(27,30,33,35)        179.9066         estimate D2E/DX2                !
 ! D94   D(27,30,33,36)        -60.2085         estimate D2E/DX2                !
 ! D95   D(31,30,33,34)       -178.1544         estimate D2E/DX2                !
 ! D96   D(31,30,33,35)        -58.1612         estimate D2E/DX2                !
 ! D97   D(31,30,33,36)         61.7237         estimate D2E/DX2                !
 ! D98   D(32,30,33,34)        -61.6478         estimate D2E/DX2                !
 ! D99   D(32,30,33,35)         58.3454         estimate D2E/DX2                !
 ! D100  D(32,30,33,36)        178.2303         estimate D2E/DX2                !
 ! D101  D(44,37,38,39)          0.0173         estimate D2E/DX2                !
 ! D102  D(44,37,38,46)       -179.9496         estimate D2E/DX2                !
 ! D103  D(47,37,38,39)        179.9391         estimate D2E/DX2                !
 ! D104  D(47,37,38,46)         -0.0278         estimate D2E/DX2                !
 ! D105  D(38,37,44,42)         -0.057          estimate D2E/DX2                !
 ! D106  D(38,37,44,45)        179.9513         estimate D2E/DX2                !
 ! D107  D(47,37,44,42)       -179.9853         estimate D2E/DX2                !
 ! D108  D(47,37,44,45)          0.023          estimate D2E/DX2                !
 ! D109  D(38,37,47,48)         -0.0399         estimate D2E/DX2                !
 ! D110  D(44,37,47,48)        179.8844         estimate D2E/DX2                !
 ! D111  D(37,38,39,40)       -179.9786         estimate D2E/DX2                !
 ! D112  D(37,38,39,41)          0.0206         estimate D2E/DX2                !
 ! D113  D(46,38,39,40)         -0.0112         estimate D2E/DX2                !
 ! D114  D(46,38,39,41)        179.988          estimate D2E/DX2                !
 ! D115  D(38,39,41,3)        -179.986          estimate D2E/DX2                !
 ! D116  D(38,39,41,42)         -0.0197         estimate D2E/DX2                !
 ! D117  D(40,39,41,3)           0.0132         estimate D2E/DX2                !
 ! D118  D(40,39,41,42)        179.9795         estimate D2E/DX2                !
 ! D119  D(3,41,42,43)          -0.0577         estimate D2E/DX2                !
 ! D120  D(3,41,42,44)         179.9465         estimate D2E/DX2                !
 ! D121  D(39,41,42,43)        179.9756         estimate D2E/DX2                !
 ! D122  D(39,41,42,44)         -0.0202         estimate D2E/DX2                !
 ! D123  D(41,42,44,37)          0.0583         estimate D2E/DX2                !
 ! D124  D(41,42,44,45)       -179.9502         estimate D2E/DX2                !
 ! D125  D(43,42,44,37)       -179.9374         estimate D2E/DX2                !
 ! D126  D(43,42,44,45)          0.054          estimate D2E/DX2                !
 ! D127  D(37,47,48,49)         58.8874         estimate D2E/DX2                !
 ! D128  D(37,47,48,50)        -59.6127         estimate D2E/DX2                !
 ! D129  D(37,47,48,51)        179.6395         estimate D2E/DX2                !
 ! D130  D(47,48,51,52)        173.0412         estimate D2E/DX2                !
 ! D131  D(47,48,51,53)         58.5424         estimate D2E/DX2                !
 ! D132  D(47,48,51,54)        -65.3643         estimate D2E/DX2                !
 ! D133  D(49,48,51,52)        -68.0528         estimate D2E/DX2                !
 ! D134  D(49,48,51,53)        177.4484         estimate D2E/DX2                !
 ! D135  D(49,48,51,54)         53.5417         estimate D2E/DX2                !
 ! D136  D(50,48,51,52)         54.2083         estimate D2E/DX2                !
 ! D137  D(50,48,51,53)        -60.2905         estimate D2E/DX2                !
 ! D138  D(50,48,51,54)        175.8028         estimate D2E/DX2                !
 ! D139  D(48,51,54,55)         59.5684         estimate D2E/DX2                !
 ! D140  D(48,51,54,56)        -56.56           estimate D2E/DX2                !
 ! D141  D(48,51,54,57)       -178.3644         estimate D2E/DX2                !
 ! D142  D(52,51,54,55)        179.4778         estimate D2E/DX2                !
 ! D143  D(52,51,54,56)         63.3494         estimate D2E/DX2                !
 ! D144  D(52,51,54,57)        -58.4551         estimate D2E/DX2                !
 ! D145  D(53,51,54,55)        -63.5086         estimate D2E/DX2                !
 ! D146  D(53,51,54,56)       -179.637          estimate D2E/DX2                !
 ! D147  D(53,51,54,57)         58.5586         estimate D2E/DX2                !
 ! D148  D(51,54,57,58)         59.9397         estimate D2E/DX2                !
 ! D149  D(51,54,57,59)        179.9246         estimate D2E/DX2                !
 ! D150  D(51,54,57,60)        -60.198          estimate D2E/DX2                !
 ! D151  D(55,54,57,58)       -178.1509         estimate D2E/DX2                !
 ! D152  D(55,54,57,59)        -58.166          estimate D2E/DX2                !
 ! D153  D(55,54,57,60)         61.7114         estimate D2E/DX2                !
 ! D154  D(56,54,57,58)        -61.6226         estimate D2E/DX2                !
 ! D155  D(56,54,57,59)         58.3623         estimate D2E/DX2                !
 ! D156  D(56,54,57,60)        178.2397         estimate D2E/DX2                !
 --------------------------------------------------------------------------------
 Trust Radius=3.00D-01 FncErr=1.00D-07 GrdErr=1.00D-06
 Number of steps in this run=    339 maximum allowed number of steps=    360.
 GradGradGradGradGradGradGradGradGradGradGradGradGradGradGradGradGradGrad

 Stoichiometry    C26H28N2O4(1+,2)
 Framework group  C1[X(C26H28N2O4)]
 Deg. of freedom   174
 Full point group                 C1      NOp   1
 Largest Abelian subgroup         C1      NOp   1
 Largest concise Abelian subgroup C1      NOp   1
                         Standard orientation:                         
 ---------------------------------------------------------------------
 Center     Atomic      Atomic             Coordinates (Angstroms)
 Number     Number       Type             X           Y           Z
 ---------------------------------------------------------------------
      1          7           0       -0.990379   -1.809214    0.011114
      2          6           0        0.423300   -1.686604    0.077703
      3          6           0       -1.647052   -0.602792   -0.066458
      4          6           0       -0.615826    0.386323   -0.051660
      5          6           0        0.631811   -0.234895    0.034513
      6          6           0        1.663678    0.754606    0.051883
      7          6           0       -0.406486    1.838904   -0.093538
      8          7           0        1.008513    1.960459   -0.025011
      9          8           0        1.181325   -2.638143    0.150704
     10          8           0       -1.162443    2.790769   -0.166875
     11          1           0        1.442646    2.872952   -0.037399
     12          1           0       -1.423171   -2.722134    0.022998
     13          6           0        5.880337    0.304979    0.287875
     14          6           0        5.040842   -0.831707    0.282125
     15          6           0        3.669762   -0.673255    0.204835
     16          1           0        3.036875   -1.555096    0.201419
     17          6           0        3.079534    0.617716    0.130208
     18          6           0        3.943697    1.751760    0.137251
     19          1           0        3.543201    2.758928    0.083116
     20          6           0        5.306702    1.602107    0.214030
     21          1           0        5.970760    2.459281    0.220986
     22          1           0        5.456489   -1.829598    0.337926
     23          8           0        7.208099    0.269364    0.360539
     24          6           0        7.916732   -0.998437    0.452087
     25          1           0        7.665383   -1.598670   -0.430827
     26          1           0        7.573100   -1.518402    1.353424
     27          6           0        9.405750   -0.702694    0.515653
     28          1           0        9.909376   -1.656585    0.721956
     29          1           0        9.600917   -0.055546    1.380075
     30          6           0        9.983016   -0.076640   -0.761453
     31          1           0        9.462892    0.865506   -0.971555
     32          1           0        9.779086   -0.741969   -1.611921
     33          6           0       11.490645    0.179631   -0.660788
     34          1           0       12.042367   -0.750529   -0.483198
     35          1           0       11.876810    0.623954   -1.583257
     36          1           0       11.722280    0.866477    0.161174
     37          6           0       -5.867354   -0.169273   -0.294496
     38          6           0       -5.294129   -1.463105   -0.214796
     39          6           0       -3.922212   -1.596925   -0.140992
     40          1           0       -3.516964   -2.602071   -0.081437
     41          6           0       -3.063573   -0.465098   -0.142345
     42          6           0       -3.659693    0.828213   -0.223158
     43          1           0       -3.031235    1.712859   -0.225957
     44          6           0       -5.025864    0.969334   -0.297783
     45          1           0       -5.485564    1.949482   -0.360237
     46          1           0       -5.918244   -2.347351   -0.211603
     47          8           0       -7.173622    0.072486   -0.370450
     48          6           0       -8.138754   -1.015548   -0.377988
     49          1           0       -8.012013   -1.596390    0.543901
     50          1           0       -7.928388   -1.655968   -1.242201
     51          6           0       -9.530653   -0.411849   -0.463090
     52          1           0      -10.230289   -1.248124   -0.594573
     53          1           0       -9.597670    0.195565   -1.374435
     54          6           0       -9.937911    0.417803    0.762577
     55          1           0       -9.229967    1.244747    0.892810
     56          1           0       -9.857307   -0.207042    1.662987
     57          6           0      -11.362072    0.972586    0.649462
     58          1           0      -12.097562    0.166042    0.550887
     59          1           0      -11.627727    1.558029    1.535000
     60          1           0      -11.465254    1.626298   -0.224051
 ---------------------------------------------------------------------
 Rotational constants (GHZ):      0.6442797      0.0313017      0.0300945
 Standard basis: 6-31+G(d,p) (6D, 7F)
 There are   748 symmetry adapted basis functions of A   symmetry.
 Integral buffers will be    262144 words long.
 Raffenetti 2 integral format.
 Two-electron integral symmetry is turned on.
   748 basis functions,  1220 primitive gaussians,   748 cartesian basis functions
   115 alpha electrons      114 beta electrons
       nuclear repulsion energy      2821.3346448934 Hartrees.
 NAtoms=   60 NActive=   60 NUniq=   60 SFac= 1.00D+00 NAtFMM=   50 NAOKFM=T Big=T
 One-electron integrals computed using PRISM.
 NBasis=   748 RedAO= T  NBF=   748
 NBsUse=   739 1.00D-06 NBFU=   739
 Harris functional with IExCor=  402 diagonalized for initial guess.
 ExpMin= 4.38D-02 ExpMax= 5.48D+03 ExpMxC= 8.25D+02 IAcc=2 IRadAn=         0 AccDes= 0.00D+00
 HarFok:  IExCor=  402 AccDes= 0.00D+00 IRadAn=         0 IDoV= 1
 ScaDFX=  1.000000  1.000000  1.000000  1.000000
 FoFCou: FMM=F IPFlag=           0 FMFlag=      100000 FMFlg1=        2001
         NFxFlg=           0 DoJE=T BraDBF=F KetDBF=T FulRan=T
         Omega=  0.000000  0.000000  1.000000  0.000000  0.000000 ICntrl=     500 IOpCl=  0
         NMat0=    1 NMatS0=    1 NMatT0=    0 NMatD0=    1 NMtDS0=    0 NMtDT0=    0
         I1Cent=           4 NGrid=           0.
 Petite list used in FoFCou.
 Initial guess orbital symmetries:
 Alpha Orbitals:
       Occupied  (A) (A) (A) (A) (A) (A) (A) (A) (A) (A) (A) (A)
                 (A) (A) (A) (A) (A) (A) (A) (A) (A) (A) (A) (A)
                 (A) (A) (A) (A) (A) (A) (A) (A) (A) (A) (A) (A)
                 (A) (A) (A) (A) (A) (A) (A) (A) (A) (A) (A) (A)
                 (A) (A) (A) (A) (A) (A) (A) (A) (A) (A) (A) (A)
                 (A) (A) (A) (A) (A) (A) (A) (A) (A) (A) (A) (A)
                 (A) (A) (A) (A) (A) (A) (A) (A) (A) (A) (A) (A)
                 (A) (A) (A) (A) (A) (A) (A) (A) (A) (A) (A) (A)
                 (A) (A) (A) (A) (A) (A) (A) (A) (A) (A) (A) (A)
                 (A) (A) (A) (A) (A) (A) (A)
       Virtual   (A) (A) (A) (A) (A) (A) (A) (A) (A) (A) (A) (A)
                 (A) (A) (A) (A) (A) (A) (A) (A) (A) (A) (A) (A)
                 (A) (A) (A) (A) (A) (A) (A) (A) (A) (A) (A) (A)
                 (A) (A) (A) (A) (A) (A) (A) (A) (A) (A) (A) (A)
                 (A) (A) (A) (A) (A) (A) (A) (A) (A) (A) (A) (A)
                 (A) (A) (A) (A) (A) (A) (A) (A) (A) (A) (A) (A)
                 (A) (A) (A) (A) (A) (A) (A) (A) (A) (A) (A) (A)
                 (A) (A) (A) (A) (A) (A) (A) (A) (A) (A) (A) (A)
                 (A) (A) (A) (A) (A) (A) (A) (A) (A) (A) (A) (A)
                 (A) (A) (A) (A) (A) (A) (A) (A) (A) (A) (A) (A)
                 (A) (A) (A) (A) (A) (A) (A) (A) (A) (A) (A) (A)
                 (A) (A) (A) (A) (A) (A) (A) (A) (A) (A) (A) (A)
                 (A) (A) (A) (A) (A) (A) (A) (A) (A) (A) (A) (A)
                 (A) (A) (A) (A) (A) (A) (A) (A) (A) (A) (A) (A)
                 (A) (A) (A) (A) (A) (A) (A) (A) (A) (A) (A) (A)
                 (A) (A) (A) (A) (A) (A) (A) (A) (A) (A) (A) (A)
                 (A) (A) (A) (A) (A) (A) (A) (A) (A) (A) (A) (A)
                 (A) (A) (A) (A) (A) (A) (A) (A) (A) (A) (A) (A)
                 (A) (A) (A) (A) (A) (A) (A) (A) (A) (A) (A) (A)
                 (A) (A) (A) (A) (A) (A) (A) (A) (A) (A) (A) (A)
                 (A) (A) (A) (A) (A) (A) (A) (A) (A) (A) (A) (A)
                 (A) (A) (A) (A) (A) (A) (A) (A) (A) (A) (A) (A)
                 (A) (A) (A) (A) (A) (A) (A) (A) (A) (A) (A) (A)
                 (A) (A) (A) (A) (A) (A) (A) (A) (A) (A) (A) (A)
                 (A) (A) (A) (A) (A) (A) (A) (A) (A) (A) (A) (A)
                 (A) (A) (A) (A) (A) (A) (A) (A) (A) (A) (A) (A)
                 (A) (A) (A) (A) (A) (A) (A) (A) (A) (A) (A) (A)
                 (A) (A) (A) (A) (A) (A) (A) (A) (A) (A) (A) (A)
                 (A) (A) (A) (A) (A) (A) (A) (A) (A) (A) (A) (A)
                 (A) (A) (A) (A) (A) (A) (A) (A) (A) (A) (A) (A)
                 (A) (A) (A) (A) (A) (A) (A) (A) (A) (A) (A) (A)
                 (A) (A) (A) (A) (A) (A) (A) (A) (A) (A) (A) (A)
                 (A) (A) (A) (A) (A) (A) (A) (A) (A) (A) (A) (A)
                 (A) (A) (A) (A) (A) (A) (A) (A) (A) (A) (A) (A)
                 (A) (A) (A) (A) (A) (A) (A) (A) (A) (A) (A) (A)
                 (A) (A) (A) (A) (A) (A) (A) (A) (A) (A) (A) (A)
                 (A) (A) (A) (A) (A) (A) (A) (A) (A) (A) (A) (A)
                 (A) (A) (A) (A) (A) (A) (A) (A) (A) (A) (A) (A)
                 (A) (A) (A) (A) (A) (A) (A) (A) (A) (A) (A) (A)
                 (A) (A) (A) (A) (A) (A) (A) (A) (A) (A) (A) (A)
                 (A) (A) (A) (A) (A) (A) (A) (A) (A) (A) (A) (A)
                 (A) (A) (A) (A) (A) (A) (A) (A) (A) (A) (A) (A)
                 (A) (A) (A) (A) (A) (A) (A) (A) (A) (A) (A) (A)
                 (A) (A) (A) (A) (A) (A) (A) (A) (A) (A) (A) (A)
                 (A) (A) (A) (A) (A) (A) (A) (A) (A) (A) (A) (A)
                 (A) (A) (A) (A) (A) (A) (A) (A) (A) (A) (A) (A)
                 (A) (A) (A) (A) (A) (A) (A) (A) (A) (A) (A) (A)
                 (A) (A) (A) (A) (A) (A) (A) (A) (A) (A) (A) (A)
                 (A) (A) (A) (A) (A) (A) (A) (A) (A) (A) (A) (A)
                 (A) (A) (A) (A) (A) (A) (A) (A) (A) (A) (A) (A)
                 (A) (A) (A) (A) (A) (A) (A) (A) (A) (A) (A) (A)
                 (A) (A) (A) (A) (A) (A) (A) (A) (A) (A) (A) (A)
 Beta  Orbitals:
       Occupied  (A) (A) (A) (A) (A) (A) (A) (A) (A) (A) (A) (A)
                 (A) (A) (A) (A) (A) (A) (A) (A) (A) (A) (A) (A)
                 (A) (A) (A) (A) (A) (A) (A) (A) (A) (A) (A) (A)
                 (A) (A) (A) (A) (A) (A) (A) (A) (A) (A) (A) (A)
                 (A) (A) (A) (A) (A) (A) (A) (A) (A) (A) (A) (A)
                 (A) (A) (A) (A) (A) (A) (A) (A) (A) (A) (A) (A)
                 (A) (A) (A) (A) (A) (A) (A) (A) (A) (A) (A) (A)
                 (A) (A) (A) (A) (A) (A) (A) (A) (A) (A) (A) (A)
                 (A) (A) (A) (A) (A) (A) (A) (A) (A) (A) (A) (A)
                 (A) (A) (A) (A) (A) (A)
       Virtual   (A) (A) (A) (A) (A) (A) (A) (A) (A) (A) (A) (A)
                 (A) (A) (A) (A) (A) (A) (A) (A) (A) (A) (A) (A)
                 (A) (A) (A) (A) (A) (A) (A) (A) (A) (A) (A) (A)
                 (A) (A) (A) (A) (A) (A) (A) (A) (A) (A) (A) (A)
                 (A) (A) (A) (A) (A) (A) (A) (A) (A) (A) (A) (A)
                 (A) (A) (A) (A) (A) (A) (A) (A) (A) (A) (A) (A)
                 (A) (A) (A) (A) (A) (A) (A) (A) (A) (A) (A) (A)
                 (A) (A) (A) (A) (A) (A) (A) (A) (A) (A) (A) (A)
                 (A) (A) (A) (A) (A) (A) (A) (A) (A) (A) (A) (A)
                 (A) (A) (A) (A) (A) (A) (A) (A) (A) (A) (A) (A)
                 (A) (A) (A) (A) (A) (A) (A) (A) (A) (A) (A) (A)
                 (A) (A) (A) (A) (A) (A) (A) (A) (A) (A) (A) (A)
                 (A) (A) (A) (A) (A) (A) (A) (A) (A) (A) (A) (A)
                 (A) (A) (A) (A) (A) (A) (A) (A) (A) (A) (A) (A)
                 (A) (A) (A) (A) (A) (A) (A) (A) (A) (A) (A) (A)
                 (A) (A) (A) (A) (A) (A) (A) (A) (A) (A) (A) (A)
                 (A) (A) (A) (A) (A) (A) (A) (A) (A) (A) (A) (A)
                 (A) (A) (A) (A) (A) (A) (A) (A) (A) (A) (A) (A)
                 (A) (A) (A) (A) (A) (A) (A) (A) (A) (A) (A) (A)
                 (A) (A) (A) (A) (A) (A) (A) (A) (A) (A) (A) (A)
                 (A) (A) (A) (A) (A) (A) (A) (A) (A) (A) (A) (A)
                 (A) (A) (A) (A) (A) (A) (A) (A) (A) (A) (A) (A)
                 (A) (A) (A) (A) (A) (A) (A) (A) (A) (A) (A) (A)
                 (A) (A) (A) (A) (A) (A) (A) (A) (A) (A) (A) (A)
                 (A) (A) (A) (A) (A) (A) (A) (A) (A) (A) (A) (A)
                 (A) (A) (A) (A) (A) (A) (A) (A) (A) (A) (A) (A)
                 (A) (A) (A) (A) (A) (A) (A) (A) (A) (A) (A) (A)
                 (A) (A) (A) (A) (A) (A) (A) (A) (A) (A) (A) (A)
                 (A) (A) (A) (A) (A) (A) (A) (A) (A) (A) (A) (A)
                 (A) (A) (A) (A) (A) (A) (A) (A) (A) (A) (A) (A)
                 (A) (A) (A) (A) (A) (A) (A) (A) (A) (A) (A) (A)
                 (A) (A) (A) (A) (A) (A) (A) (A) (A) (A) (A) (A)
                 (A) (A) (A) (A) (A) (A) (A) (A) (A) (A) (A) (A)
                 (A) (A) (A) (A) (A) (A) (A) (A) (A) (A) (A) (A)
                 (A) (A) (A) (A) (A) (A) (A) (A) (A) (A) (A) (A)
                 (A) (A) (A) (A) (A) (A) (A) (A) (A) (A) (A) (A)
                 (A) (A) (A) (A) (A) (A) (A) (A) (A) (A) (A) (A)
                 (A) (A) (A) (A) (A) (A) (A) (A) (A) (A) (A) (A)
                 (A) (A) (A) (A) (A) (A) (A) (A) (A) (A) (A) (A)
                 (A) (A) (A) (A) (A) (A) (A) (A) (A) (A) (A) (A)
                 (A) (A) (A) (A) (A) (A) (A) (A) (A) (A) (A) (A)
                 (A) (A) (A) (A) (A) (A) (A) (A) (A) (A) (A) (A)
                 (A) (A) (A) (A) (A) (A) (A) (A) (A) (A) (A) (A)
                 (A) (A) (A) (A) (A) (A) (A) (A) (A) (A) (A) (A)
                 (A) (A) (A) (A) (A) (A) (A) (A) (A) (A) (A) (A)
                 (A) (A) (A) (A) (A) (A) (A) (A) (A) (A) (A) (A)
                 (A) (A) (A) (A) (A) (A) (A) (A) (A) (A) (A) (A)
                 (A) (A) (A) (A) (A) (A) (A) (A) (A) (A) (A) (A)
                 (A) (A) (A) (A) (A) (A) (A) (A) (A) (A) (A) (A)
                 (A) (A) (A) (A) (A) (A) (A) (A) (A) (A) (A) (A)
                 (A) (A) (A) (A) (A) (A) (A) (A) (A) (A) (A) (A)
                 (A) (A) (A) (A) (A) (A) (A) (A) (A) (A) (A) (A)
                 (A)
 The electronic state of the initial guess is 2-A.
 Initial guess <Sx>= 0.0000 <Sy>= 0.0000 <Sz>= 0.5000 <S**2>= 0.7500 S= 0.5000
 Requested convergence on RMS density matrix=1.00D-08 within 128 cycles.
 Requested convergence on MAX density matrix=1.00D-06.
 Requested convergence on             energy=1.00D-06.
 No special actions if energy rises.
 Restarting incremental Fock formation.
 SCF Done:  E(UB3LYP) =  -1417.92114864     A.U. after   27 cycles
             Convg  =    0.9353D-08             -V/T =  2.0095
 <Sx>= 0.0000 <Sy>= 0.0000 <Sz>= 0.5000 <S**2>= 0.7564 S= 0.5032
 <L.S>= 0.000000000000E+00
 Annihilation of the first spin contaminant:
 S**2 before annihilation     0.7564,   after     0.7500

 **********************************************************************

            Population analysis using the SCF density.

 **********************************************************************

 Orbital symmetries:
 Alpha Orbitals:
       Occupied  (A) (A) (A) (A) (A) (A) (A) (A) (A) (A) (A) (A)
                 (A) (A) (A) (A) (A) (A) (A) (A) (A) (A) (A) (A)
                 (A) (A) (A) (A) (A) (A) (A) (A) (A) (A) (A) (A)
                 (A) (A) (A) (A) (A) (A) (A) (A) (A) (A) (A) (A)
                 (A) (A) (A) (A) (A) (A) (A) (A) (A) (A) (A) (A)
                 (A) (A) (A) (A) (A) (A) (A) (A) (A) (A) (A) (A)
                 (A) (A) (A) (A) (A) (A) (A) (A) (A) (A) (A) (A)
                 (A) (A) (A) (A) (A) (A) (A) (A) (A) (A) (A) (A)
                 (A) (A) (A) (A) (A) (A) (A) (A) (A) (A) (A) (A)
                 (A) (A) (A) (A) (A) (A) (A)
       Virtual   (A) (A) (A) (A) (A) (A) (A) (A) (A) (A) (A) (A)
                 (A) (A) (A) (A) (A) (A) (A) (A) (A) (A) (A) (A)
                 (A) (A) (A) (A) (A) (A) (A) (A) (A) (A) (A) (A)
                 (A) (A) (A) (A) (A) (A) (A) (A) (A) (A) (A) (A)
                 (A) (A) (A) (A) (A) (A) (A) (A) (A) (A) (A) (A)
                 (A) (A) (A) (A) (A) (A) (A) (A) (A) (A) (A) (A)
                 (A) (A) (A) (A) (A) (A) (A) (A) (A) (A) (A) (A)
                 (A) (A) (A) (A) (A) (A) (A) (A) (A) (A) (A) (A)
                 (A) (A) (A) (A) (A) (A) (A) (A) (A) (A) (A) (A)
                 (A) (A) (A) (A) (A) (A) (A) (A) (A) (A) (A) (A)
                 (A) (A) (A) (A) (A) (A) (A) (A) (A) (A) (A) (A)
                 (A) (A) (A) (A) (A) (A) (A) (A) (A) (A) (A) (A)
                 (A) (A) (A) (A) (A) (A) (A) (A) (A) (A) (A) (A)
                 (A) (A) (A) (A) (A) (A) (A) (A) (A) (A) (A) (A)
                 (A) (A) (A) (A) (A) (A) (A) (A) (A) (A) (A) (A)
                 (A) (A) (A) (A) (A) (A) (A) (A) (A) (A) (A) (A)
                 (A) (A) (A) (A) (A) (A) (A) (A) (A) (A) (A) (A)
                 (A) (A) (A) (A) (A) (A) (A) (A) (A) (A) (A) (A)
                 (A) (A) (A) (A) (A) (A) (A) (A) (A) (A) (A) (A)
                 (A) (A) (A) (A) (A) (A) (A) (A) (A) (A) (A) (A)
                 (A) (A) (A) (A) (A) (A) (A) (A) (A) (A) (A) (A)
                 (A) (A) (A) (A) (A) (A) (A) (A) (A) (A) (A) (A)
                 (A) (A) (A) (A) (A) (A) (A) (A) (A) (A) (A) (A)
                 (A) (A) (A) (A) (A) (A) (A) (A) (A) (A) (A) (A)
                 (A) (A) (A) (A) (A) (A) (A) (A) (A) (A) (A) (A)
                 (A) (A) (A) (A) (A) (A) (A) (A) (A) (A) (A) (A)
                 (A) (A) (A) (A) (A) (A) (A) (A) (A) (A) (A) (A)
                 (A) (A) (A) (A) (A) (A) (A) (A) (A) (A) (A) (A)
                 (A) (A) (A) (A) (A) (A) (A) (A) (A) (A) (A) (A)
                 (A) (A) (A) (A) (A) (A) (A) (A) (A) (A) (A) (A)
                 (A) (A) (A) (A) (A) (A) (A) (A) (A) (A) (A) (A)
                 (A) (A) (A) (A) (A) (A) (A) (A) (A) (A) (A) (A)
                 (A) (A) (A) (A) (A) (A) (A) (A) (A) (A) (A) (A)
                 (A) (A) (A) (A) (A) (A) (A) (A) (A) (A) (A) (A)
                 (A) (A) (A) (A) (A) (A) (A) (A) (A) (A) (A) (A)
                 (A) (A) (A) (A) (A) (A) (A) (A) (A) (A) (A) (A)
                 (A) (A) (A) (A) (A) (A) (A) (A) (A) (A) (A) (A)
                 (A) (A) (A) (A) (A) (A) (A) (A) (A) (A) (A) (A)
                 (A) (A) (A) (A) (A) (A) (A) (A) (A) (A) (A) (A)
                 (A) (A) (A) (A) (A) (A) (A) (A) (A) (A) (A) (A)
                 (A) (A) (A) (A) (A) (A) (A) (A) (A) (A) (A) (A)
                 (A) (A) (A) (A) (A) (A) (A) (A) (A) (A) (A) (A)
                 (A) (A) (A) (A) (A) (A) (A) (A) (A) (A) (A) (A)
                 (A) (A) (A) (A) (A) (A) (A) (A) (A) (A) (A) (A)
                 (A) (A) (A) (A) (A) (A) (A) (A) (A) (A) (A) (A)
                 (A) (A) (A) (A) (A) (A) (A) (A) (A) (A) (A) (A)
                 (A) (A) (A) (A) (A) (A) (A) (A) (A) (A) (A) (A)
                 (A) (A) (A) (A) (A) (A) (A) (A) (A) (A) (A) (A)
                 (A) (A) (A) (A) (A) (A) (A) (A) (A) (A) (A) (A)
                 (A) (A) (A) (A) (A) (A) (A) (A) (A) (A) (A) (A)
                 (A) (A) (A) (A) (A) (A) (A) (A) (A) (A) (A) (A)
                 (A) (A) (A) (A) (A) (A) (A) (A) (A) (A) (A) (A)
 Beta  Orbitals:
       Occupied  (A) (A) (A) (A) (A) (A) (A) (A) (A) (A) (A) (A)
                 (A) (A) (A) (A) (A) (A) (A) (A) (A) (A) (A) (A)
                 (A) (A) (A) (A) (A) (A) (A) (A) (A) (A) (A) (A)
                 (A) (A) (A) (A) (A) (A) (A) (A) (A) (A) (A) (A)
                 (A) (A) (A) (A) (A) (A) (A) (A) (A) (A) (A) (A)
                 (A) (A) (A) (A) (A) (A) (A) (A) (A) (A) (A) (A)
                 (A) (A) (A) (A) (A) (A) (A) (A) (A) (A) (A) (A)
                 (A) (A) (A) (A) (A) (A) (A) (A) (A) (A) (A) (A)
                 (A) (A) (A) (A) (A) (A) (A) (A) (A) (A) (A) (A)
                 (A) (A) (A) (A) (A) (A)
       Virtual   (A) (A) (A) (A) (A) (A) (A) (A) (A) (A) (A) (A)
                 (A) (A) (A) (A) (A) (A) (A) (A) (A) (A) (A) (A)
                 (A) (A) (A) (A) (A) (A) (A) (A) (A) (A) (A) (A)
                 (A) (A) (A) (A) (A) (A) (A) (A) (A) (A) (A) (A)
                 (A) (A) (A) (A) (A) (A) (A) (A) (A) (A) (A) (A)
                 (A) (A) (A) (A) (A) (A) (A) (A) (A) (A) (A) (A)
                 (A) (A) (A) (A) (A) (A) (A) (A) (A) (A) (A) (A)
                 (A) (A) (A) (A) (A) (A) (A) (A) (A) (A) (A) (A)
                 (A) (A) (A) (A) (A) (A) (A) (A) (A) (A) (A) (A)
                 (A) (A) (A) (A) (A) (A) (A) (A) (A) (A) (A) (A)
                 (A) (A) (A) (A) (A) (A) (A) (A) (A) (A) (A) (A)
                 (A) (A) (A) (A) (A) (A) (A) (A) (A) (A) (A) (A)
                 (A) (A) (A) (A) (A) (A) (A) (A) (A) (A) (A) (A)
                 (A) (A) (A) (A) (A) (A) (A) (A) (A) (A) (A) (A)
                 (A) (A) (A) (A) (A) (A) (A) (A) (A) (A) (A) (A)
                 (A) (A) (A) (A) (A) (A) (A) (A) (A) (A) (A) (A)
                 (A) (A) (A) (A) (A) (A) (A) (A) (A) (A) (A) (A)
                 (A) (A) (A) (A) (A) (A) (A) (A) (A) (A) (A) (A)
                 (A) (A) (A) (A) (A) (A) (A) (A) (A) (A) (A) (A)
                 (A) (A) (A) (A) (A) (A) (A) (A) (A) (A) (A) (A)
                 (A) (A) (A) (A) (A) (A) (A) (A) (A) (A) (A) (A)
                 (A) (A) (A) (A) (A) (A) (A) (A) (A) (A) (A) (A)
                 (A) (A) (A) (A) (A) (A) (A) (A) (A) (A) (A) (A)
                 (A) (A) (A) (A) (A) (A) (A) (A) (A) (A) (A) (A)
                 (A) (A) (A) (A) (A) (A) (A) (A) (A) (A) (A) (A)
                 (A) (A) (A) (A) (A) (A) (A) (A) (A) (A) (A) (A)
                 (A) (A) (A) (A) (A) (A) (A) (A) (A) (A) (A) (A)
                 (A) (A) (A) (A) (A) (A) (A) (A) (A) (A) (A) (A)
                 (A) (A) (A) (A) (A) (A) (A) (A) (A) (A) (A) (A)
                 (A) (A) (A) (A) (A) (A) (A) (A) (A) (A) (A) (A)
                 (A) (A) (A) (A) (A) (A) (A) (A) (A) (A) (A) (A)
                 (A) (A) (A) (A) (A) (A) (A) (A) (A) (A) (A) (A)
                 (A) (A) (A) (A) (A) (A) (A) (A) (A) (A) (A) (A)
                 (A) (A) (A) (A) (A) (A) (A) (A) (A) (A) (A) (A)
                 (A) (A) (A) (A) (A) (A) (A) (A) (A) (A) (A) (A)
                 (A) (A) (A) (A) (A) (A) (A) (A) (A) (A) (A) (A)
                 (A) (A) (A) (A) (A) (A) (A) (A) (A) (A) (A) (A)
                 (A) (A) (A) (A) (A) (A) (A) (A) (A) (A) (A) (A)
                 (A) (A) (A) (A) (A) (A) (A) (A) (A) (A) (A) (A)
                 (A) (A) (A) (A) (A) (A) (A) (A) (A) (A) (A) (A)
                 (A) (A) (A) (A) (A) (A) (A) (A) (A) (A) (A) (A)
                 (A) (A) (A) (A) (A) (A) (A) (A) (A) (A) (A) (A)
                 (A) (A) (A) (A) (A) (A) (A) (A) (A) (A) (A) (A)
                 (A) (A) (A) (A) (A) (A) (A) (A) (A) (A) (A) (A)
                 (A) (A) (A) (A) (A) (A) (A) (A) (A) (A) (A) (A)
                 (A) (A) (A) (A) (A) (A) (A) (A) (A) (A) (A) (A)
                 (A) (A) (A) (A) (A) (A) (A) (A) (A) (A) (A) (A)
                 (A) (A) (A) (A) (A) (A) (A) (A) (A) (A) (A) (A)
                 (A) (A) (A) (A) (A) (A) (A) (A) (A) (A) (A) (A)
                 (A) (A) (A) (A) (A) (A) (A) (A) (A) (A) (A) (A)
                 (A) (A) (A) (A) (A) (A) (A) (A) (A) (A) (A) (A)
                 (A) (A) (A) (A) (A) (A) (A) (A) (A) (A) (A) (A)
                 (A)
 The electronic state is 2-A.
 Alpha  occ. eigenvalues --  -19.31228 -19.31152 -19.27306 -19.27272 -14.51981
 Alpha  occ. eigenvalues --  -14.51965 -10.43721 -10.43700 -10.40893 -10.40870
 Alpha  occ. eigenvalues --  -10.39326 -10.39271 -10.34769 -10.34713 -10.34363
 Alpha  occ. eigenvalues --  -10.34305 -10.34165 -10.34143 -10.33835 -10.33428
 Alpha  occ. eigenvalues --  -10.32852 -10.32334 -10.32276 -10.31867 -10.31707
 Alpha  occ. eigenvalues --  -10.31187 -10.27443 -10.27435 -10.26027 -10.26004
 Alpha  occ. eigenvalues --  -10.24302 -10.24279  -1.19786  -1.19722  -1.18967
 Alpha  occ. eigenvalues --   -1.18497  -1.11715  -1.10250  -0.99052  -0.99017
 Alpha  occ. eigenvalues --   -0.95153  -0.91975  -0.91379  -0.89106  -0.88589
 Alpha  occ. eigenvalues --   -0.88203  -0.87911  -0.84375  -0.82950  -0.81470
 Alpha  occ. eigenvalues --   -0.81367  -0.79852  -0.75874  -0.75467  -0.74283
 Alpha  occ. eigenvalues --   -0.73744  -0.71607  -0.71210  -0.69777  -0.68192
 Alpha  occ. eigenvalues --   -0.67057  -0.66891  -0.66691  -0.66156  -0.64694
 Alpha  occ. eigenvalues --   -0.63933  -0.62598  -0.60430  -0.60298  -0.60213
 Alpha  occ. eigenvalues --   -0.58991  -0.58711  -0.58660  -0.57942  -0.57375
 Alpha  occ. eigenvalues --   -0.56983  -0.56634  -0.56347  -0.55582  -0.54967
 Alpha  occ. eigenvalues --   -0.53722  -0.53573  -0.53184  -0.52218  -0.52079
 Alpha  occ. eigenvalues --   -0.51883  -0.51767  -0.51286  -0.51088  -0.49812
 Alpha  occ. eigenvalues --   -0.49149  -0.48884  -0.48707  -0.46811  -0.46727
 Alpha  occ. eigenvalues --   -0.46056  -0.46034  -0.45203  -0.45004  -0.44151
 Alpha  occ. eigenvalues --   -0.43977  -0.42026  -0.42004  -0.41236  -0.41079
 Alpha  occ. eigenvalues --   -0.40821  -0.40806  -0.40524  -0.40502  -0.39702
 Alpha  occ. eigenvalues --   -0.38836  -0.38756  -0.37082  -0.36122  -0.31692
 Alpha virt. eigenvalues --   -0.22653  -0.16660  -0.13704  -0.13536  -0.11820
 Alpha virt. eigenvalues --   -0.10336  -0.09574  -0.09553  -0.08086  -0.07527
 Alpha virt. eigenvalues --   -0.07388  -0.06025  -0.05787  -0.05732  -0.05451
 Alpha virt. eigenvalues --   -0.04945  -0.04772  -0.04635  -0.04532  -0.04274
 Alpha virt. eigenvalues --   -0.03796  -0.03560  -0.03299  -0.03021  -0.02693
 Alpha virt. eigenvalues --   -0.02389  -0.02291  -0.01890  -0.01729  -0.01346
 Alpha virt. eigenvalues --   -0.01168  -0.00880  -0.00725  -0.00268  -0.00147
 Alpha virt. eigenvalues --    0.00127   0.00434   0.00508   0.00593   0.00740
 Alpha virt. eigenvalues --    0.00784   0.01195   0.01544   0.02071   0.02243
 Alpha virt. eigenvalues --    0.02415   0.02535   0.02787   0.03078   0.03271
 Alpha virt. eigenvalues --    0.03391   0.03692   0.03872   0.03929   0.04330
 Alpha virt. eigenvalues --    0.04575   0.04865   0.05135   0.05490   0.05660
 Alpha virt. eigenvalues --    0.05874   0.05910   0.06013   0.06202   0.06300
 Alpha virt. eigenvalues --    0.06665   0.06861   0.07038   0.07250   0.07571
 Alpha virt. eigenvalues --    0.07752   0.07959   0.08208   0.08365   0.08513
 Alpha virt. eigenvalues --    0.08643   0.09124   0.09505   0.09578   0.09903
 Alpha virt. eigenvalues --    0.10270   0.10353   0.10571   0.10781   0.10874
 Alpha virt. eigenvalues --    0.11084   0.11221   0.11708   0.11795   0.12383
 Alpha virt. eigenvalues --    0.12569   0.12707   0.12914   0.13014   0.13460
 Alpha virt. eigenvalues --    0.13532   0.13677   0.14006   0.14185   0.14231
 Alpha virt. eigenvalues --    0.14455   0.14628   0.14735   0.14851   0.15142
 Alpha virt. eigenvalues --    0.15473   0.15581   0.15805   0.16039   0.16069
 Alpha virt. eigenvalues --    0.16218   0.16560   0.16908   0.16973   0.17090
 Alpha virt. eigenvalues --    0.17261   0.17828   0.17988   0.18255   0.18397
 Alpha virt. eigenvalues --    0.18490   0.18731   0.18900   0.19066   0.19594
 Alpha virt. eigenvalues --    0.19841   0.19983   0.20136   0.20502   0.20650
 Alpha virt. eigenvalues --    0.20940   0.21086   0.21429   0.21446   0.21758
 Alpha virt. eigenvalues --    0.21885   0.22377   0.22594   0.22810   0.23091
 Alpha virt. eigenvalues --    0.23144   0.23452   0.23864   0.24140   0.24564
 Alpha virt. eigenvalues --    0.24823   0.24962   0.25575   0.25781   0.26077
 Alpha virt. eigenvalues --    0.26225   0.26598   0.26883   0.26921   0.27211
 Alpha virt. eigenvalues --    0.27540   0.27719   0.28403   0.28572   0.28882
 Alpha virt. eigenvalues --    0.29104   0.29240   0.29605   0.30276   0.30748
 Alpha virt. eigenvalues --    0.30800   0.31191   0.31279   0.31929   0.32228
 Alpha virt. eigenvalues --    0.32286   0.32781   0.33511   0.33966   0.34855
 Alpha virt. eigenvalues --    0.35697   0.35720   0.38560   0.38909   0.40123
 Alpha virt. eigenvalues --    0.40296   0.40514   0.40717   0.42151   0.43443
 Alpha virt. eigenvalues --    0.45366   0.45725   0.47720   0.49035   0.51814
 Alpha virt. eigenvalues --    0.51975   0.52910   0.55055   0.55381   0.55892
 Alpha virt. eigenvalues --    0.56048   0.56257   0.56795   0.57365   0.57601
 Alpha virt. eigenvalues --    0.58194   0.58481   0.58600   0.58984   0.59273
 Alpha virt. eigenvalues --    0.59355   0.59576   0.59845   0.60105   0.60551
 Alpha virt. eigenvalues --    0.60744   0.60837   0.61363   0.61819   0.62154
 Alpha virt. eigenvalues --    0.62388   0.62944   0.63198   0.63745   0.64177
 Alpha virt. eigenvalues --    0.64663   0.65576   0.65898   0.66401   0.66867
 Alpha virt. eigenvalues --    0.67506   0.67681   0.68018   0.68972   0.69182
 Alpha virt. eigenvalues --    0.69371   0.69720   0.70128   0.70724   0.70947
 Alpha virt. eigenvalues --    0.71265   0.72625   0.73704   0.74263   0.75260
 Alpha virt. eigenvalues --    0.75604   0.76025   0.77002   0.77650   0.78732
 Alpha virt. eigenvalues --    0.78958   0.81674   0.81785   0.82174   0.83272
 Alpha virt. eigenvalues --    0.83742   0.84374   0.84743   0.85402   0.85611
 Alpha virt. eigenvalues --    0.85950   0.86321   0.86518   0.86880   0.87084
 Alpha virt. eigenvalues --    0.88363   0.88917   0.89283   0.90074   0.90174
 Alpha virt. eigenvalues --    0.90847   0.91059   0.91587   0.92049   0.92424
 Alpha virt. eigenvalues --    0.93010   0.94075   0.95312   0.95645   0.96133
 Alpha virt. eigenvalues --    0.97225   0.98081   0.98594   0.98801   0.99031
 Alpha virt. eigenvalues --    1.00478   1.01293   1.01671   1.02387   1.03198
 Alpha virt. eigenvalues --    1.03282   1.03887   1.03986   1.04338   1.04560
 Alpha virt. eigenvalues --    1.04884   1.05181   1.05895   1.06667   1.07843
 Alpha virt. eigenvalues --    1.08091   1.09532   1.09691   1.10111   1.10662
 Alpha virt. eigenvalues --    1.11162   1.11389   1.11867   1.12306   1.13000
 Alpha virt. eigenvalues --    1.13206   1.13797   1.14507   1.14536   1.15151
 Alpha virt. eigenvalues --    1.15498   1.16778   1.17012   1.17164   1.17573
 Alpha virt. eigenvalues --    1.18287   1.18857   1.19643   1.19730   1.19876
 Alpha virt. eigenvalues --    1.19987   1.21115   1.22040   1.22726   1.23031
 Alpha virt. eigenvalues --    1.23377   1.24891   1.25491   1.25758   1.26305
 Alpha virt. eigenvalues --    1.26538   1.26752   1.27239   1.28081   1.28412
 Alpha virt. eigenvalues --    1.28548   1.28726   1.29642   1.29864   1.31063
 Alpha virt. eigenvalues --    1.31126   1.33142   1.33456   1.33709   1.34912
 Alpha virt. eigenvalues --    1.35054   1.35521   1.36700   1.36764   1.38954
 Alpha virt. eigenvalues --    1.40167   1.41128   1.41190   1.42422   1.45268
 Alpha virt. eigenvalues --    1.46824   1.47689   1.49455   1.50968   1.52608
 Alpha virt. eigenvalues --    1.53143   1.54674   1.55347   1.55382   1.57652
 Alpha virt. eigenvalues --    1.57897   1.60098   1.61505   1.61593   1.62045
 Alpha virt. eigenvalues --    1.63650   1.63700   1.63943   1.64632   1.64810
 Alpha virt. eigenvalues --    1.66254   1.67822   1.69317   1.69608   1.70220
 Alpha virt. eigenvalues --    1.72839   1.73737   1.74288   1.75130   1.75683
 Alpha virt. eigenvalues --    1.75715   1.76537   1.76760   1.77321   1.77506
 Alpha virt. eigenvalues --    1.78122   1.78708   1.78827   1.79187   1.80070
 Alpha virt. eigenvalues --    1.80901   1.81367   1.81880   1.82959   1.83560
 Alpha virt. eigenvalues --    1.84239   1.84400   1.84580   1.84935   1.86229
 Alpha virt. eigenvalues --    1.86622   1.86804   1.86855   1.87364   1.87609
 Alpha virt. eigenvalues --    1.87709   1.88889   1.89618   1.91340   1.92249
 Alpha virt. eigenvalues --    1.93239   1.93554   1.93600   1.95162   1.95207
 Alpha virt. eigenvalues --    1.96156   1.97211   1.97310   1.97510   1.97874
 Alpha virt. eigenvalues --    1.98526   1.98574   1.99591   2.00291   2.00927
 Alpha virt. eigenvalues --    2.01695   2.02336   2.02500   2.03247   2.03282
 Alpha virt. eigenvalues --    2.03597   2.04717   2.06401   2.06885   2.07041
 Alpha virt. eigenvalues --    2.07171   2.07744   2.07834   2.08744   2.08770
 Alpha virt. eigenvalues --    2.12977   2.13075   2.13240   2.14216   2.15803
 Alpha virt. eigenvalues --    2.16055   2.16457   2.17701   2.18374   2.18692
 Alpha virt. eigenvalues --    2.19007   2.19137   2.20545   2.20774   2.22405
 Alpha virt. eigenvalues --    2.22552   2.22748   2.23265   2.23412   2.24184
 Alpha virt. eigenvalues --    2.24700   2.28545   2.28739   2.28952   2.29267
 Alpha virt. eigenvalues --    2.30461   2.31563   2.32212   2.32879   2.33028
 Alpha virt. eigenvalues --    2.34148   2.35599   2.37781   2.38346   2.38733
 Alpha virt. eigenvalues --    2.39461   2.40380   2.40463   2.40836   2.41719
 Alpha virt. eigenvalues --    2.42680   2.42919   2.43171   2.43676   2.45878
 Alpha virt. eigenvalues --    2.46077   2.46217   2.46552   2.47030   2.47697
 Alpha virt. eigenvalues --    2.47886   2.48103   2.48998   2.49548   2.50561
 Alpha virt. eigenvalues --    2.50941   2.52512   2.53154   2.53576   2.55557
 Alpha virt. eigenvalues --    2.56426   2.57782   2.58817   2.58936   2.60373
 Alpha virt. eigenvalues --    2.60822   2.61440   2.62603   2.62935   2.63488
 Alpha virt. eigenvalues --    2.64141   2.66613   2.66949   2.67771   2.67928
 Alpha virt. eigenvalues --    2.68190   2.68426   2.68711   2.69953   2.70118
 Alpha virt. eigenvalues --    2.70309   2.70650   2.71628   2.73126   2.73938
 Alpha virt. eigenvalues --    2.75467   2.77117   2.77174   2.77875   2.80443
 Alpha virt. eigenvalues --    2.81770   2.82214   2.82656   2.83348   2.83466
 Alpha virt. eigenvalues --    2.84321   2.85422   2.86423   2.87227   2.88178
 Alpha virt. eigenvalues --    2.89473   2.90445   2.93048   2.93599   2.94243
 Alpha virt. eigenvalues --    2.98003   2.98342   2.99610   3.02467   3.04880
 Alpha virt. eigenvalues --    3.06756   3.08979   3.10183   3.14925   3.16669
 Alpha virt. eigenvalues --    3.17876   3.17944   3.18384   3.19539   3.21716
 Alpha virt. eigenvalues --    3.22348   3.22561   3.23622   3.25098   3.25684
 Alpha virt. eigenvalues --    3.27585   3.28161   3.29727   3.29816   3.31176
 Alpha virt. eigenvalues --    3.32365   3.32479   3.36376   3.38038   3.38104
 Alpha virt. eigenvalues --    3.42847   3.42893   3.43568   3.44026   3.45362
 Alpha virt. eigenvalues --    3.45815   3.45985   3.46053   3.50765   3.50776
 Alpha virt. eigenvalues --    3.71428   3.71738   4.12926   4.18936   4.19894
 Alpha virt. eigenvalues --    4.21379   4.21418   4.22361   4.25550   4.26838
 Alpha virt. eigenvalues --    4.27048   4.28241   4.29711   4.30108   4.31551
 Alpha virt. eigenvalues --    4.34827   4.35526   4.39518   4.40064   4.43137
 Alpha virt. eigenvalues --    4.44541   4.45292   4.48698   4.51500   4.56404
 Alpha virt. eigenvalues --    4.57072   4.59165   4.66029   4.66320   4.66382
 Alpha virt. eigenvalues --    4.78025   4.79265   4.93156   5.01353
  Beta  occ. eigenvalues --  -19.31110 -19.31036 -19.27014 -19.26985 -14.51999
  Beta  occ. eigenvalues --  -14.51981 -10.43731 -10.43713 -10.40781 -10.40747
  Beta  occ. eigenvalues --  -10.39238 -10.39180 -10.34773 -10.34717 -10.34137
  Beta  occ. eigenvalues --  -10.34131 -10.34112 -10.34079 -10.33782 -10.33399
  Beta  occ. eigenvalues --  -10.32790 -10.32290 -10.32270 -10.31855 -10.31723
  Beta  occ. eigenvalues --  -10.31203 -10.27443 -10.27435 -10.26027 -10.26004
  Beta  occ. eigenvalues --  -10.24302 -10.24279  -1.19557  -1.19495  -1.18564
  Beta  occ. eigenvalues --   -1.18076  -1.11400  -1.10070  -0.98891  -0.98854
  Beta  occ. eigenvalues --   -0.94752  -0.91735  -0.91241  -0.88978  -0.88521
  Beta  occ. eigenvalues --   -0.88131  -0.87857  -0.84040  -0.82873  -0.81326
  Beta  occ. eigenvalues --   -0.81180  -0.79635  -0.75747  -0.75394  -0.74113
  Beta  occ. eigenvalues --   -0.73656  -0.71487  -0.71150  -0.69644  -0.68097
  Beta  occ. eigenvalues --   -0.67008  -0.66819  -0.66631  -0.66116  -0.64596
  Beta  occ. eigenvalues --   -0.63848  -0.62441  -0.60222  -0.60133  -0.59560
  Beta  occ. eigenvalues --   -0.58823  -0.58436  -0.58405  -0.57718  -0.57208
  Beta  occ. eigenvalues --   -0.56870  -0.56460  -0.55876  -0.55522  -0.54899
  Beta  occ. eigenvalues --   -0.53609  -0.53502  -0.53018  -0.52050  -0.51887
  Beta  occ. eigenvalues --   -0.51691  -0.51520  -0.50980  -0.50977  -0.49219
  Beta  occ. eigenvalues --   -0.48845  -0.48701  -0.48194  -0.46585  -0.46512
  Beta  occ. eigenvalues --   -0.45978  -0.45942  -0.44801  -0.44756  -0.43748
  Beta  occ. eigenvalues --   -0.43589  -0.42017  -0.41997  -0.40955  -0.40793
  Beta  occ. eigenvalues --   -0.40784  -0.40504  -0.40482  -0.40119  -0.39397
  Beta  occ. eigenvalues --   -0.38641  -0.38510  -0.35938  -0.35193
  Beta virt. eigenvalues --   -0.27113  -0.21239  -0.15680  -0.13357  -0.13191
  Beta virt. eigenvalues --   -0.11089  -0.10311  -0.09562  -0.08857  -0.08037
  Beta virt. eigenvalues --   -0.07509  -0.07378  -0.06007  -0.05769  -0.05666
  Beta virt. eigenvalues --   -0.05422  -0.04922  -0.04755  -0.04613  -0.04448
  Beta virt. eigenvalues --   -0.04254  -0.03554  -0.03293  -0.03175  -0.02979
  Beta virt. eigenvalues --   -0.02683  -0.02361  -0.01943  -0.01868  -0.01328
  Beta virt. eigenvalues --   -0.01264  -0.01117  -0.00845  -0.00678  -0.00222
  Beta virt. eigenvalues --   -0.00069   0.00172   0.00488   0.00532   0.00764
  Beta virt. eigenvalues --    0.00807   0.00988   0.01243   0.01576   0.02097
  Beta virt. eigenvalues --    0.02276   0.02449   0.02552   0.02843   0.03109
  Beta virt. eigenvalues --    0.03331   0.03485   0.03842   0.03962   0.04030
  Beta virt. eigenvalues --    0.04502   0.04660   0.04895   0.05177   0.05546
  Beta virt. eigenvalues --    0.05852   0.05968   0.05977   0.06108   0.06261
  Beta virt. eigenvalues --    0.06379   0.06721   0.06913   0.07088   0.07287
  Beta virt. eigenvalues --    0.07601   0.07797   0.08029   0.08245   0.08397
  Beta virt. eigenvalues --    0.08575   0.08679   0.09166   0.09545   0.09624
  Beta virt. eigenvalues --    0.09946   0.10356   0.10431   0.10628   0.10872
  Beta virt. eigenvalues --    0.10936   0.11127   0.11289   0.11754   0.11828
  Beta virt. eigenvalues --    0.12413   0.12600   0.12776   0.12986   0.13079
  Beta virt. eigenvalues --    0.13503   0.13595   0.13729   0.14040   0.14208
  Beta virt. eigenvalues --    0.14283   0.14485   0.14660   0.14773   0.14902
  Beta virt. eigenvalues --    0.15205   0.15516   0.15626   0.15867   0.16084
  Beta virt. eigenvalues --    0.16121   0.16272   0.16604   0.16972   0.17137
  Beta virt. eigenvalues --    0.17218   0.17319   0.17872   0.18055   0.18323
  Beta virt. eigenvalues --    0.18423   0.18561   0.18776   0.18940   0.19114
  Beta virt. eigenvalues --    0.19657   0.19886   0.20102   0.20184   0.20534
  Beta virt. eigenvalues --    0.20716   0.20993   0.21118   0.21462   0.21522
  Beta virt. eigenvalues --    0.21795   0.21930   0.22426   0.22633   0.22869
  Beta virt. eigenvalues --    0.23127   0.23217   0.23504   0.23949   0.24249
  Beta virt. eigenvalues --    0.24649   0.24906   0.25047   0.25634   0.25820
  Beta virt. eigenvalues --    0.26129   0.26293   0.26656   0.26900   0.26942
  Beta virt. eigenvalues --    0.27261   0.27619   0.27770   0.28429   0.28659
  Beta virt. eigenvalues --    0.28908   0.29139   0.29284   0.29640   0.30310
  Beta virt. eigenvalues --    0.30789   0.30845   0.31244   0.31313   0.31974
  Beta virt. eigenvalues --    0.32257   0.32309   0.32807   0.33569   0.34032
  Beta virt. eigenvalues --    0.34917   0.35750   0.35765   0.38612   0.38972
  Beta virt. eigenvalues --    0.40192   0.40392   0.40598   0.40768   0.42216
  Beta virt. eigenvalues --    0.43492   0.45461   0.45903   0.47799   0.49161
  Beta virt. eigenvalues --    0.51905   0.52122   0.53100   0.55081   0.55398
  Beta virt. eigenvalues --    0.56063   0.56183   0.56346   0.56945   0.57411
  Beta virt. eigenvalues --    0.57666   0.58319   0.58708   0.58777   0.59116
  Beta virt. eigenvalues --    0.59357   0.59472   0.59619   0.59947   0.60213
  Beta virt. eigenvalues --    0.60598   0.60812   0.60923   0.61471   0.61894
  Beta virt. eigenvalues --    0.62258   0.62513   0.63025   0.63279   0.63810
  Beta virt. eigenvalues --    0.64314   0.64698   0.65648   0.65959   0.66457
  Beta virt. eigenvalues --    0.67128   0.67673   0.67808   0.68188   0.69096
  Beta virt. eigenvalues --    0.69264   0.69422   0.69802   0.70665   0.70880
  Beta virt. eigenvalues --    0.71267   0.71613   0.72841   0.73752   0.74313
  Beta virt. eigenvalues --    0.75292   0.75636   0.76371   0.77032   0.77681
  Beta virt. eigenvalues --    0.78758   0.78973   0.81706   0.81806   0.82197
  Beta virt. eigenvalues --    0.83307   0.83772   0.84438   0.84753   0.85423
  Beta virt. eigenvalues --    0.85631   0.85966   0.86344   0.86545   0.86898
  Beta virt. eigenvalues --    0.87100   0.88395   0.88941   0.89301   0.90100
  Beta virt. eigenvalues --    0.90207   0.90885   0.91090   0.91650   0.92064
  Beta virt. eigenvalues --    0.92445   0.93025   0.94125   0.95341   0.95696
  Beta virt. eigenvalues --    0.96241   0.97285   0.98156   0.98656   0.98869
  Beta virt. eigenvalues --    0.99074   1.00502   1.01333   1.01718   1.02435
  Beta virt. eigenvalues --    1.03263   1.03354   1.03925   1.04021   1.04366
  Beta virt. eigenvalues --    1.04599   1.04900   1.05190   1.05939   1.06731
  Beta virt. eigenvalues --    1.07974   1.08509   1.09616   1.09729   1.10422
  Beta virt. eigenvalues --    1.10746   1.11323   1.11558   1.12378   1.12586
  Beta virt. eigenvalues --    1.13222   1.13363   1.13976   1.14624   1.14853
  Beta virt. eigenvalues --    1.15620   1.15748   1.17141   1.17268   1.17447
  Beta virt. eigenvalues --    1.17934   1.18374   1.18959   1.19767   1.19840
  Beta virt. eigenvalues --    1.20012   1.20089   1.21306   1.22158   1.23083
  Beta virt. eigenvalues --    1.23235   1.23548   1.25057   1.25607   1.25886
  Beta virt. eigenvalues --    1.26550   1.26669   1.26900   1.27378   1.28308
  Beta virt. eigenvalues --    1.28609   1.28728   1.28832   1.29975   1.30059
  Beta virt. eigenvalues --    1.31114   1.31192   1.33245   1.33592   1.33805
  Beta virt. eigenvalues --    1.35103   1.35163   1.35699   1.36802   1.36859
  Beta virt. eigenvalues --    1.39099   1.40291   1.41212   1.41262   1.42517
  Beta virt. eigenvalues --    1.45490   1.46988   1.47837   1.49525   1.51092
  Beta virt. eigenvalues --    1.52707   1.53486   1.54843   1.55372   1.55417
  Beta virt. eigenvalues --    1.57695   1.57938   1.60598   1.61522   1.61598
  Beta virt. eigenvalues --    1.62116   1.63794   1.64005   1.64145   1.64788
  Beta virt. eigenvalues --    1.65247   1.66408   1.67980   1.69571   1.69862
  Beta virt. eigenvalues --    1.70306   1.72938   1.73835   1.74523   1.75215
  Beta virt. eigenvalues --    1.75831   1.76020   1.76573   1.76785   1.77442
  Beta virt. eigenvalues --    1.77593   1.78263   1.78818   1.78985   1.79448
  Beta virt. eigenvalues --    1.80247   1.81047   1.81510   1.82005   1.83081
  Beta virt. eigenvalues --    1.83686   1.84298   1.84466   1.84707   1.85010
  Beta virt. eigenvalues --    1.86416   1.86671   1.86877   1.86926   1.87491
  Beta virt. eigenvalues --    1.87736   1.87872   1.88993   1.89906   1.91441
  Beta virt. eigenvalues --    1.92521   1.93274   1.93596   1.93694   1.95336
  Beta virt. eigenvalues --    1.95526   1.96262   1.97294   1.97545   1.97837
  Beta virt. eigenvalues --    1.98017   1.98532   1.98609   1.99806   2.00409
  Beta virt. eigenvalues --    2.01065   2.01796   2.02537   2.02997   2.03261
  Beta virt. eigenvalues --    2.03293   2.03759   2.04856   2.06511   2.07014
  Beta virt. eigenvalues --    2.07052   2.07609   2.07757   2.07863   2.08755
  Beta virt. eigenvalues --    2.08779   2.13255   2.13347   2.13489   2.14392
  Beta virt. eigenvalues --    2.15922   2.16210   2.16582   2.17770   2.18407
  Beta virt. eigenvalues --    2.18865   2.19115   2.19318   2.20684   2.21015
  Beta virt. eigenvalues --    2.22454   2.22579   2.22823   2.23338   2.23488
  Beta virt. eigenvalues --    2.24267   2.24962   2.28594   2.28783   2.29011
  Beta virt. eigenvalues --    2.29313   2.30625   2.31830   2.32570   2.32913
  Beta virt. eigenvalues --    2.33095   2.34257   2.35774   2.37911   2.38485
  Beta virt. eigenvalues --    2.38850   2.39508   2.40530   2.40559   2.40908
  Beta virt. eigenvalues --    2.41798   2.42723   2.43087   2.43329   2.43768
  Beta virt. eigenvalues --    2.45923   2.46109   2.46272   2.46596   2.47121
[...]
     51          6           0       -9.530653   -0.411849   -0.463090
     52          1           0      -10.230289   -1.248124   -0.594573
     53          1           0       -9.597670    0.195565   -1.374435
     54          6           0       -9.937911    0.417803    0.762577
     55          1           0       -9.229967    1.244747    0.892810
     56          1           0       -9.857307   -0.207042    1.662987
     57          6           0      -11.362072    0.972586    0.649462
     58          1           0      -12.097562    0.166042    0.550887
     59          1           0      -11.627727    1.558029    1.535000
     60          1           0      -11.465254    1.626298   -0.224051
 ---------------------------------------------------------------------
 Rotational constants (GHZ):      0.6442797      0.0313017      0.0300945
 Standard basis: 6-31+G(d,p) (6D, 7F)
 There are   748 symmetry adapted basis functions of A   symmetry.
 Integral buffers will be    262144 words long.
 Raffenetti 2 integral format.
 Two-electron integral symmetry is turned on.
   748 basis functions,  1220 primitive gaussians,   748 cartesian basis functions
   115 alpha electrons      114 beta electrons
       nuclear repulsion energy      2821.3346448934 Hartrees.
 NAtoms=   60 NActive=   60 NUniq=   60 SFac= 1.00D+00 NAtFMM=   50 NAOKFM=T Big=T
 One-electron integrals computed using PRISM.
 NBasis=   748 RedAO= T  NBF=   748
 NBsUse=   739 1.00D-06 NBFU=   739
 Initial guess read from the checkpoint file:  G:\Meu Drive\POS-DOC-IME\SUBSTITUINTES-DOADORES\DPP-substituido\DPP-SUB-3-CATION-CONT.chk
 B after Tr=     0.000000    0.000000    0.000000
         Rot=    1.000000    0.000000    0.000000    0.000000 Ang=   0.00 deg.
 Initial guess orbital symmetries:
 Alpha Orbitals:
       Occupied  (A) (A) (A) (A) (A) (A) (A) (A) (A) (A) (A) (A)
                 (A) (A) (A) (A) (A) (A) (A) (A) (A) (A) (A) (A)
                 (A) (A) (A) (A) (A) (A) (A) (A) (A) (A) (A) (A)
                 (A) (A) (A) (A) (A) (A) (A) (A) (A) (A) (A) (A)
                 (A) (A) (A) (A) (A) (A) (A) (A) (A) (A) (A) (A)
                 (A) (A) (A) (A) (A) (A) (A) (A) (A) (A) (A) (A)
                 (A) (A) (A) (A) (A) (A) (A) (A) (A) (A) (A) (A)
                 (A) (A) (A) (A) (A) (A) (A) (A) (A) (A) (A) (A)
                 (A) (A) (A) (A) (A) (A) (A) (A) (A) (A) (A) (A)
                 (A) (A) (A) (A) (A) (A) (A)
       Virtual   (A) (A) (A) (A) (A) (A) (A) (A) (A) (A) (A) (A)
                 (A) (A) (A) (A) (A) (A) (A) (A) (A) (A) (A) (A)
                 (A) (A) (A) (A) (A) (A) (A) (A) (A) (A) (A) (A)
                 (A) (A) (A) (A) (A) (A) (A) (A) (A) (A) (A) (A)
                 (A) (A) (A) (A) (A) (A) (A) (A) (A) (A) (A) (A)
                 (A) (A) (A) (A) (A) (A) (A) (A) (A) (A) (A) (A)
                 (A) (A) (A) (A) (A) (A) (A) (A) (A) (A) (A) (A)
                 (A) (A) (A) (A) (A) (A) (A) (A) (A) (A) (A) (A)
                 (A) (A) (A) (A) (A) (A) (A) (A) (A) (A) (A) (A)
                 (A) (A) (A) (A) (A) (A) (A) (A) (A) (A) (A) (A)
                 (A) (A) (A) (A) (A) (A) (A) (A) (A) (A) (A) (A)
                 (A) (A) (A) (A) (A) (A) (A) (A) (A) (A) (A) (A)
                 (A) (A) (A) (A) (A) (A) (A) (A) (A) (A) (A) (A)
                 (A) (A) (A) (A) (A) (A) (A) (A) (A) (A) (A) (A)
                 (A) (A) (A) (A) (A) (A) (A) (A) (A) (A) (A) (A)
                 (A) (A) (A) (A) (A) (A) (A) (A) (A) (A) (A) (A)
                 (A) (A) (A) (A) (A) (A) (A) (A) (A) (A) (A) (A)
                 (A) (A) (A) (A) (A) (A) (A) (A) (A) (A) (A) (A)
                 (A) (A) (A) (A) (A) (A) (A) (A) (A) (A) (A) (A)
                 (A) (A) (A) (A) (A) (A) (A) (A) (A) (A) (A) (A)
                 (A) (A) (A) (A) (A) (A) (A) (A) (A) (A) (A) (A)
                 (A) (A) (A) (A) (A) (A) (A) (A) (A) (A) (A) (A)
                 (A) (A) (A) (A) (A) (A) (A) (A) (A) (A) (A) (A)
                 (A) (A) (A) (A) (A) (A) (A) (A) (A) (A) (A) (A)
                 (A) (A) (A) (A) (A) (A) (A) (A) (A) (A) (A) (A)
                 (A) (A) (A) (A) (A) (A) (A) (A) (A) (A) (A) (A)
                 (A) (A) (A) (A) (A) (A) (A) (A) (A) (A) (A) (A)
                 (A) (A) (A) (A) (A) (A) (A) (A) (A) (A) (A) (A)
                 (A) (A) (A) (A) (A) (A) (A) (A) (A) (A) (A) (A)
                 (A) (A) (A) (A) (A) (A) (A) (A) (A) (A) (A) (A)
                 (A) (A) (A) (A) (A) (A) (A) (A) (A) (A) (A) (A)
                 (A) (A) (A) (A) (A) (A) (A) (A) (A) (A) (A) (A)
                 (A) (A) (A) (A) (A) (A) (A) (A) (A) (A) (A) (A)
                 (A) (A) (A) (A) (A) (A) (A) (A) (A) (A) (A) (A)
                 (A) (A) (A) (A) (A) (A) (A) (A) (A) (A) (A) (A)
                 (A) (A) (A) (A) (A) (A) (A) (A) (A) (A) (A) (A)
                 (A) (A) (A) (A) (A) (A) (A) (A) (A) (A) (A) (A)
                 (A) (A) (A) (A) (A) (A) (A) (A) (A) (A) (A) (A)
                 (A) (A) (A) (A) (A) (A) (A) (A) (A) (A) (A) (A)
                 (A) (A) (A) (A) (A) (A) (A) (A) (A) (A) (A) (A)
                 (A) (A) (A) (A) (A) (A) (A) (A) (A) (A) (A) (A)
                 (A) (A) (A) (A) (A) (A) (A) (A) (A) (A) (A) (A)
                 (A) (A) (A) (A) (A) (A) (A) (A) (A) (A) (A) (A)
                 (A) (A) (A) (A) (A) (A) (A) (A) (A) (A) (A) (A)
                 (A) (A) (A) (A) (A) (A) (A) (A) (A) (A) (A) (A)
                 (A) (A) (A) (A) (A) (A) (A) (A) (A) (A) (A) (A)
                 (A) (A) (A) (A) (A) (A) (A) (A) (A) (A) (A) (A)
                 (A) (A) (A) (A) (A) (A) (A) (A) (A) (A) (A) (A)
                 (A) (A) (A) (A) (A) (A) (A) (A) (A) (A) (A) (A)
                 (A) (A) (A) (A) (A) (A) (A) (A) (A) (A) (A) (A)
                 (A) (A) (A) (A) (A) (A) (A) (A) (A) (A) (A) (A)
                 (A) (A) (A) (A) (A) (A) (A) (A) (A) (A) (A) (A)
 Beta  Orbitals:
       Occupied  (A) (A) (A) (A) (A) (A) (A) (A) (A) (A) (A) (A)
                 (A) (A) (A) (A) (A) (A) (A) (A) (A) (A) (A) (A)
                 (A) (A) (A) (A) (A) (A) (A) (A) (A) (A) (A) (A)
                 (A) (A) (A) (A) (A) (A) (A) (A) (A) (A) (A) (A)
                 (A) (A) (A) (A) (A) (A) (A) (A) (A) (A) (A) (A)
                 (A) (A) (A) (A) (A) (A) (A) (A) (A) (A) (A) (A)
                 (A) (A) (A) (A) (A) (A) (A) (A) (A) (A) (A) (A)
                 (A) (A) (A) (A) (A) (A) (A) (A) (A) (A) (A) (A)
                 (A) (A) (A) (A) (A) (A) (A) (A) (A) (A) (A) (A)
                 (A) (A) (A) (A) (A) (A)
       Virtual   (A) (A) (A) (A) (A) (A) (A) (A) (A) (A) (A) (A)
                 (A) (A) (A) (A) (A) (A) (A) (A) (A) (A) (A) (A)
                 (A) (A) (A) (A) (A) (A) (A) (A) (A) (A) (A) (A)
                 (A) (A) (A) (A) (A) (A) (A) (A) (A) (A) (A) (A)
                 (A) (A) (A) (A) (A) (A) (A) (A) (A) (A) (A) (A)
                 (A) (A) (A) (A) (A) (A) (A) (A) (A) (A) (A) (A)
                 (A) (A) (A) (A) (A) (A) (A) (A) (A) (A) (A) (A)
                 (A) (A) (A) (A) (A) (A) (A) (A) (A) (A) (A) (A)
                 (A) (A) (A) (A) (A) (A) (A) (A) (A) (A) (A) (A)
                 (A) (A) (A) (A) (A) (A) (A) (A) (A) (A) (A) (A)
                 (A) (A) (A) (A) (A) (A) (A) (A) (A) (A) (A) (A)
                 (A) (A) (A) (A) (A) (A) (A) (A) (A) (A) (A) (A)
                 (A) (A) (A) (A) (A) (A) (A) (A) (A) (A) (A) (A)
                 (A) (A) (A) (A) (A) (A) (A) (A) (A) (A) (A) (A)
                 (A) (A) (A) (A) (A) (A) (A) (A) (A) (A) (A) (A)
                 (A) (A) (A) (A) (A) (A) (A) (A) (A) (A) (A) (A)
                 (A) (A) (A) (A) (A) (A) (A) (A) (A) (A) (A) (A)
                 (A) (A) (A) (A) (A) (A) (A) (A) (A) (A) (A) (A)
                 (A) (A) (A) (A) (A) (A) (A) (A) (A) (A) (A) (A)
                 (A) (A) (A) (A) (A) (A) (A) (A) (A) (A) (A) (A)
                 (A) (A) (A) (A) (A) (A) (A) (A) (A) (A) (A) (A)
                 (A) (A) (A) (A) (A) (A) (A) (A) (A) (A) (A) (A)
                 (A) (A) (A) (A) (A) (A) (A) (A) (A) (A) (A) (A)
                 (A) (A) (A) (A) (A) (A) (A) (A) (A) (A) (A) (A)
                 (A) (A) (A) (A) (A) (A) (A) (A) (A) (A) (A) (A)
                 (A) (A) (A) (A) (A) (A) (A) (A) (A) (A) (A) (A)
                 (A) (A) (A) (A) (A) (A) (A) (A) (A) (A) (A) (A)
                 (A) (A) (A) (A) (A) (A) (A) (A) (A) (A) (A) (A)
                 (A) (A) (A) (A) (A) (A) (A) (A) (A) (A) (A) (A)
                 (A) (A) (A) (A) (A) (A) (A) (A) (A) (A) (A) (A)
                 (A) (A) (A) (A) (A) (A) (A) (A) (A) (A) (A) (A)
                 (A) (A) (A) (A) (A) (A) (A) (A) (A) (A) (A) (A)
                 (A) (A) (A) (A) (A) (A) (A) (A) (A) (A) (A) (A)
                 (A) (A) (A) (A) (A) (A) (A) (A) (A) (A) (A) (A)
                 (A) (A) (A) (A) (A) (A) (A) (A) (A) (A) (A) (A)
                 (A) (A) (A) (A) (A) (A) (A) (A) (A) (A) (A) (A)
                 (A) (A) (A) (A) (A) (A) (A) (A) (A) (A) (A) (A)
                 (A) (A) (A) (A) (A) (A) (A) (A) (A) (A) (A) (A)
                 (A) (A) (A) (A) (A) (A) (A) (A) (A) (A) (A) (A)
                 (A) (A) (A) (A) (A) (A) (A) (A) (A) (A) (A) (A)
                 (A) (A) (A) (A) (A) (A) (A) (A) (A) (A) (A) (A)
                 (A) (A) (A) (A) (A) (A) (A) (A) (A) (A) (A) (A)
                 (A) (A) (A) (A) (A) (A) (A) (A) (A) (A) (A) (A)
                 (A) (A) (A) (A) (A) (A) (A) (A) (A) (A) (A) (A)
                 (A) (A) (A) (A) (A) (A) (A) (A) (A) (A) (A) (A)
                 (A) (A) (A) (A) (A) (A) (A) (A) (A) (A) (A) (A)
                 (A) (A) (A) (A) (A) (A) (A) (A) (A) (A) (A) (A)
                 (A) (A) (A) (A) (A) (A) (A) (A) (A) (A) (A) (A)
                 (A) (A) (A) (A) (A) (A) (A) (A) (A) (A) (A) (A)
                 (A) (A) (A) (A) (A) (A) (A) (A) (A) (A) (A) (A)
                 (A) (A) (A) (A) (A) (A) (A) (A) (A) (A) (A) (A)
                 (A) (A) (A) (A) (A) (A) (A) (A) (A) (A) (A) (A)
                 (A)
 Initial guess <Sx>= 0.0000 <Sy>= 0.0000 <Sz>= 0.5000 <S**2>= 0.7564 S= 0.5032
 Requested convergence on RMS density matrix=1.00D-08 within 128 cycles.
 Requested convergence on MAX density matrix=1.00D-06.
 Requested convergence on             energy=1.00D-06.
 No special actions if energy rises.
 SCF Done:  E(UB3LYP) =  -1417.92114864     A.U. after    5 cycles
             Convg  =    0.3018D-08             -V/T =  2.0095
 <Sx>= 0.0000 <Sy>= 0.0000 <Sz>= 0.5000 <S**2>= 0.7564 S= 0.5032
 <L.S>= 0.000000000000E+00
 Annihilation of the first spin contaminant:
 S**2 before annihilation     0.7564,   after     0.7500
 Range of M.O.s used for correlation:     1   739
 NBasis=   748 NAE=   115 NBE=   114 NFC=     0 NFV=     0
 NROrb=    739 NOA=   115 NOB=   114 NVA=   624 NVB=   625

 **** Warning!!: The largest alpha MO coefficient is  0.11526990D+03


 **** Warning!!: The smallest alpha delta epsilon is  0.90389473D-01


 **** Warning!!: The largest beta MO coefficient is  0.10587663D+03


 **** Warning!!: The smallest beta delta epsilon is  0.80795587D-01

 PrsmSu:  requested number of processors reduced to:   1 ShMem   1 Linda.
 PrsmSu:  requested number of processors reduced to:   1 ShMem   1 Linda.
 Symmetrizing basis deriv contribution to polar:
 IMax=3 JMax=2 DiffMx= 0.00D+00
 G2DrvN: will do     1 centers at a time, making   61 passes doing MaxLOS=2.
 Estimated number of processors is:    5
 Calling FoFCou, ICntrl=  3107 FMM=T I1Cent=   0 AccDes= 0.00D+00.
 Calling FoFCou, ICntrl=  3107 FMM=T I1Cent=   0 AccDes= 0.00D+00.
 CoulSu:  requested number of processors reduced to:   5 ShMem   1 Linda.
 Calling FoFCou, ICntrl=  3107 FMM=T I1Cent=   0 AccDes= 0.00D+00.
 CoulSu:  requested number of processors reduced to:   5 ShMem   1 Linda.
 Calling FoFCou, ICntrl=  3107 FMM=T I1Cent=   0 AccDes= 0.00D+00.
 CoulSu:  requested number of processors reduced to:   5 ShMem   1 Linda.
 Calling FoFCou, ICntrl=  3107 FMM=T I1Cent=   0 AccDes= 0.00D+00.
 CoulSu:  requested number of processors reduced to:   5 ShMem   1 Linda.
 Calling FoFCou, ICntrl=  3107 FMM=T I1Cent=   0 AccDes= 0.00D+00.
 CoulSu:  requested number of processors reduced to:   5 ShMem   1 Linda.
 Calling FoFCou, ICntrl=  3107 FMM=T I1Cent=   0 AccDes= 0.00D+00.
 CoulSu:  requested number of processors reduced to:   5 ShMem   1 Linda.
 Calling FoFCou, ICntrl=  3107 FMM=T I1Cent=   0 AccDes= 0.00D+00.
 CoulSu:  requested number of processors reduced to:   5 ShMem   1 Linda.
 Calling FoFCou, ICntrl=  3107 FMM=T I1Cent=   0 AccDes= 0.00D+00.
 CoulSu:  requested number of processors reduced to:   5 ShMem   1 Linda.
 Calling FoFCou, ICntrl=  3107 FMM=T I1Cent=   0 AccDes= 0.00D+00.
 CoulSu:  requested number of processors reduced to:   5 ShMem   1 Linda.
 Calling FoFCou, ICntrl=  3107 FMM=T I1Cent=   0 AccDes= 0.00D+00.
 CoulSu:  requested number of processors reduced to:   5 ShMem   1 Linda.
 Calling FoFCou, ICntrl=  3107 FMM=T I1Cent=   0 AccDes= 0.00D+00.
 CoulSu:  requested number of processors reduced to:   5 ShMem   1 Linda.
 Calling FoFCou, ICntrl=  3107 FMM=T I1Cent=   0 AccDes= 0.00D+00.
 CoulSu:  requested number of processors reduced to:   5 ShMem   1 Linda.
 Calling FoFCou, ICntrl=  3107 FMM=T I1Cent=   0 AccDes= 0.00D+00.
 CoulSu:  requested number of processors reduced to:   5 ShMem   1 Linda.
 Calling FoFCou, ICntrl=  3107 FMM=T I1Cent=   0 AccDes= 0.00D+00.
 CoulSu:  requested number of processors reduced to:   5 ShMem   1 Linda.
 Calling FoFCou, ICntrl=  3107 FMM=T I1Cent=   0 AccDes= 0.00D+00.
 CoulSu:  requested number of processors reduced to:   5 ShMem   1 Linda.
 Calling FoFCou, ICntrl=  3107 FMM=T I1Cent=   0 AccDes= 0.00D+00.
 CoulSu:  requested number of processors reduced to:   5 ShMem   1 Linda.
 Calling FoFCou, ICntrl=  3107 FMM=T I1Cent=   0 AccDes= 0.00D+00.
 CoulSu:  requested number of processors reduced to:   5 ShMem   1 Linda.
 Calling FoFCou, ICntrl=  3107 FMM=T I1Cent=   0 AccDes= 0.00D+00.
 CoulSu:  requested number of processors reduced to:   5 ShMem   1 Linda.
 Calling FoFCou, ICntrl=  3107 FMM=T I1Cent=   0 AccDes= 0.00D+00.
 CoulSu:  requested number of processors reduced to:   5 ShMem   1 Linda.
 Calling FoFCou, ICntrl=  3107 FMM=T I1Cent=   0 AccDes= 0.00D+00.
 CoulSu:  requested number of processors reduced to:   5 ShMem   1 Linda.
 Calling FoFCou, ICntrl=  3107 FMM=T I1Cent=   0 AccDes= 0.00D+00.
 CoulSu:  requested number of processors reduced to:   5 ShMem   1 Linda.
 Calling FoFCou, ICntrl=  3107 FMM=T I1Cent=   0 AccDes= 0.00D+00.
 CoulSu:  requested number of processors reduced to:   5 ShMem   1 Linda.
 Calling FoFCou, ICntrl=  3107 FMM=T I1Cent=   0 AccDes= 0.00D+00.
 CoulSu:  requested number of processors reduced to:   5 ShMem   1 Linda.
 Calling FoFCou, ICntrl=  3107 FMM=T I1Cent=   0 AccDes= 0.00D+00.
 CoulSu:  requested number of processors reduced to:   5 ShMem   1 Linda.
 Calling FoFCou, ICntrl=  3107 FMM=T I1Cent=   0 AccDes= 0.00D+00.
 CoulSu:  requested number of processors reduced to:   5 ShMem   1 Linda.
 Calling FoFCou, ICntrl=  3107 FMM=T I1Cent=   0 AccDes= 0.00D+00.
 CoulSu:  requested number of processors reduced to:   5 ShMem   1 Linda.
 Calling FoFCou, ICntrl=  3107 FMM=T I1Cent=   0 AccDes= 0.00D+00.
 CoulSu:  requested number of processors reduced to:   5 ShMem   1 Linda.
 Calling FoFCou, ICntrl=  3107 FMM=T I1Cent=   0 AccDes= 0.00D+00.
 CoulSu:  requested number of processors reduced to:   5 ShMem   1 Linda.
 Calling FoFCou, ICntrl=  3107 FMM=T I1Cent=   0 AccDes= 0.00D+00.
 CoulSu:  requested number of processors reduced to:   5 ShMem   1 Linda.
 Calling FoFCou, ICntrl=  3107 FMM=T I1Cent=   0 AccDes= 0.00D+00.
 CoulSu:  requested number of processors reduced to:   5 ShMem   1 Linda.
 Calling FoFCou, ICntrl=  3107 FMM=T I1Cent=   0 AccDes= 0.00D+00.
 CoulSu:  requested number of processors reduced to:   5 ShMem   1 Linda.
 Calling FoFCou, ICntrl=  3107 FMM=T I1Cent=   0 AccDes= 0.00D+00.
 CoulSu:  requested number of processors reduced to:   5 ShMem   1 Linda.
 Calling FoFCou, ICntrl=  3107 FMM=T I1Cent=   0 AccDes= 0.00D+00.
 CoulSu:  requested number of processors reduced to:   5 ShMem   1 Linda.
 Calling FoFCou, ICntrl=  3107 FMM=T I1Cent=   0 AccDes= 0.00D+00.
 CoulSu:  requested number of processors reduced to:   5 ShMem   1 Linda.
 Calling FoFCou, ICntrl=  3107 FMM=T I1Cent=   0 AccDes= 0.00D+00.
 CoulSu:  requested number of processors reduced to:   5 ShMem   1 Linda.
 Calling FoFCou, ICntrl=  3107 FMM=T I1Cent=   0 AccDes= 0.00D+00.
 CoulSu:  requested number of processors reduced to:   5 ShMem   1 Linda.
 Calling FoFCou, ICntrl=  3107 FMM=T I1Cent=   0 AccDes= 0.00D+00.
 CoulSu:  requested number of processors reduced to:   5 ShMem   1 Linda.
 Calling FoFCou, ICntrl=  3107 FMM=T I1Cent=   0 AccDes= 0.00D+00.
 CoulSu:  requested number of processors reduced to:   5 ShMem   1 Linda.
 Calling FoFCou, ICntrl=  3107 FMM=T I1Cent=   0 AccDes= 0.00D+00.
 CoulSu:  requested number of processors reduced to:   5 ShMem   1 Linda.
 Calling FoFCou, ICntrl=  3107 FMM=T I1Cent=   0 AccDes= 0.00D+00.
 CoulSu:  requested number of processors reduced to:   5 ShMem   1 Linda.
 Calling FoFCou, ICntrl=  3107 FMM=T I1Cent=   0 AccDes= 0.00D+00.
 CoulSu:  requested number of processors reduced to:   5 ShMem   1 Linda.
 Calling FoFCou, ICntrl=  3107 FMM=T I1Cent=   0 AccDes= 0.00D+00.
 CoulSu:  requested number of processors reduced to:   5 ShMem   1 Linda.
 Calling FoFCou, ICntrl=  3107 FMM=T I1Cent=   0 AccDes= 0.00D+00.
 CoulSu:  requested number of processors reduced to:   5 ShMem   1 Linda.
 Calling FoFCou, ICntrl=  3107 FMM=T I1Cent=   0 AccDes= 0.00D+00.
 CoulSu:  requested number of processors reduced to:   5 ShMem   1 Linda.
 Calling FoFCou, ICntrl=  3107 FMM=T I1Cent=   0 AccDes= 0.00D+00.
 CoulSu:  requested number of processors reduced to:   5 ShMem   1 Linda.
 Calling FoFCou, ICntrl=  3107 FMM=T I1Cent=   0 AccDes= 0.00D+00.
 CoulSu:  requested number of processors reduced to:   5 ShMem   1 Linda.
 Calling FoFCou, ICntrl=  3107 FMM=T I1Cent=   0 AccDes= 0.00D+00.
 CoulSu:  requested number of processors reduced to:   5 ShMem   1 Linda.
 Calling FoFCou, ICntrl=  3107 FMM=T I1Cent=   0 AccDes= 0.00D+00.
 CoulSu:  requested number of processors reduced to:   5 ShMem   1 Linda.
 Calling FoFCou, ICntrl=  3107 FMM=T I1Cent=   0 AccDes= 0.00D+00.
 CoulSu:  requested number of processors reduced to:   5 ShMem   1 Linda.
 Calling FoFCou, ICntrl=  3107 FMM=T I1Cent=   0 AccDes= 0.00D+00.
 CoulSu:  requested number of processors reduced to:   5 ShMem   1 Linda.
 Calling FoFCou, ICntrl=  3107 FMM=T I1Cent=   0 AccDes= 0.00D+00.
 CoulSu:  requested number of processors reduced to:   5 ShMem   1 Linda.
 Calling FoFCou, ICntrl=  3107 FMM=T I1Cent=   0 AccDes= 0.00D+00.
 CoulSu:  requested number of processors reduced to:   5 ShMem   1 Linda.
 Calling FoFCou, ICntrl=  3107 FMM=T I1Cent=   0 AccDes= 0.00D+00.
 CoulSu:  requested number of processors reduced to:   5 ShMem   1 Linda.
 Calling FoFCou, ICntrl=  3107 FMM=T I1Cent=   0 AccDes= 0.00D+00.
 CoulSu:  requested number of processors reduced to:   5 ShMem   1 Linda.
 Calling FoFCou, ICntrl=  3107 FMM=T I1Cent=   0 AccDes= 0.00D+00.
 CoulSu:  requested number of processors reduced to:   5 ShMem   1 Linda.
 Calling FoFCou, ICntrl=  3107 FMM=T I1Cent=   0 AccDes= 0.00D+00.
 CoulSu:  requested number of processors reduced to:   5 ShMem   1 Linda.
 Calling FoFCou, ICntrl=  3107 FMM=T I1Cent=   0 AccDes= 0.00D+00.
 CoulSu:  requested number of processors reduced to:   5 ShMem   1 Linda.
 Calling FoFCou, ICntrl=  3107 FMM=T I1Cent=   0 AccDes= 0.00D+00.
 CoulSu:  requested number of processors reduced to:   5 ShMem   1 Linda.
 Calling FoFCou, ICntrl=  3107 FMM=T I1Cent=   0 AccDes= 0.00D+00.
 CoulSu:  requested number of processors reduced to:   5 ShMem   1 Linda.
 Calling FoFCou, ICntrl=  3107 FMM=T I1Cent=   0 AccDes= 0.00D+00.
 CoulSu:  requested number of processors reduced to:   5 ShMem   1 Linda.
 FoFDir/FoFCou used for L=0 through L=2.
 End of G2Drv Frequency-dependent properties file   721 does not exist.
 End of G2Drv Frequency-dependent properties file   722 does not exist.
