 Entering Link 1 = C:\G09W\l1.exe PID=     13536.
  
 Copyright (c) 1988,1990,1992,1993,1995,1998,2003,2009,2010,
            Gaussian, Inc.  All Rights Reserved.
  
 This is part of the Gaussian(R) 09 program.  It is based on
 the Gaussian(R) 03 system (copyright 2003, Gaussian, Inc.),
 the Gaussian(R) 98 system (copyright 1998, Gaussian, Inc.),
 the Gaussian(R) 94 system (copyright 1995, Gaussian, Inc.),
 the Gaussian 92(TM) system (copyright 1992, Gaussian, Inc.),
 the Gaussian 90(TM) system (copyright 1990, Gaussian, Inc.),
 the Gaussian 88(TM) system (copyright 1988, Gaussian, Inc.),
 the Gaussian 86(TM) system (copyright 1986, Carnegie Mellon
 University), and the Gaussian 82(TM) system (copyright 1983,
 Carnegie Mellon University). Gaussian is a federally registered
 trademark of Gaussian, Inc.
  
 This software contains proprietary and confidential information,
 including trade secrets, belonging to Gaussian, Inc.
  
 This software is provided under written license and may be
 used, copied, transmitted, or stored only in accord with that
 written license.
  
 The following legend is applicable only to US Government
 contracts under FAR:
  
                    RESTRICTED RIGHTS LEGEND
  
 Use, reproduction and disclosure by the US Government is
 subject to restrictions as set forth in subparagraphs (a)
 and (c) of the Commercial Computer Software - Restricted
 Rights clause in FAR 52.227-19.
  
 Gaussian, Inc.
 340 Quinnipiac St., Bldg. 40, Wallingford CT 06492
  
  
 ---------------------------------------------------------------
 Warning -- This program may not be used in any manner that
 competes with the business of Gaussian, Inc. or will provide
 assistance to any competitor of Gaussian, Inc.  The licensee
 of this program is prohibited from giving any competitor of
 Gaussian, Inc. access to this program.  By using this program,
 the user acknowledges that Gaussian, Inc. is engaged in the
 business of creating and licensing software in the field of
 computational chemistry and represents and warrants to the
 licensee that it is not a competitor of Gaussian, Inc. and that
 it will not use this program in any manner prohibited above.
 ---------------------------------------------------------------
  

 Cite this work as:
 Gaussian 09, Revision B.01,
 M. J. Frisch, G. W. Trucks, H. B. Schlegel, G. E. Scuseria, 
 M. A. Robb, J. R. Cheeseman, G. Scalmani, V. Barone, B. Mennucci, 
 G. A. Petersson, H. Nakatsuji, M. Caricato, X. Li, H. P. Hratchian, 
 A. F. Izmaylov, J. Bloino, G. Zheng, J. L. Sonnenberg, M. Hada, 
 M. Ehara, K. Toyota, R. Fukuda, J. Hasegawa, M. Ishida, T. Nakajima, 
 Y. Honda, O. Kitao, H. Nakai, T. Vreven, J. A. Montgomery, Jr., 
 J. E. Peralta, F. Ogliaro, M. Bearpark, J. J. Heyd, E. Brothers, 
 K. N. Kudin, V. N. Staroverov, T. Keith, R. Kobayashi, J. Normand, 
 K. Raghavachari, A. Rendell, J. C. Burant, S. S. Iyengar, J. Tomasi, 
 M. Cossi, N. Rega, J. M. Millam, M. Klene, J. E. Knox, J. B. Cross, 
 V. Bakken, C. Adamo, J. Jaramillo, R. Gomperts, R. E. Stratmann, 
 O. Yazyev, A. J. Austin, R. Cammi, C. Pomelli, J. W. Ochterski, 
 R. L. Martin, K. Morokuma, V. G. Zakrzewski, G. A. Voth, 
 P. Salvador, J. J. Dannenberg, S. Dapprich, A. D. Daniels, 
 O. Farkas, J. B. Foresman, J. V. Ortiz, J. Cioslowski, 
 and D. J. Fox, Gaussian, Inc., Wallingford CT, 2010.
 
 ******************************************
 Gaussian 09:  IA32W-G09RevB.01 12-Aug-2010
                21-Jul-2023 
 ******************************************
 %mem=150MW
 %nprocshared=6
 Will use up to    6 processors via shared memory.
 %chk=G:\Meu Drive\POS-DOC-IME\SUBSTITUINTES-DOADORES\DPP-substituido\DPP-SUB-3-T
 D-DFT.chk
 ---------------------------------------------------------------
 # td=(nstates=10) cam-b3lyp/6-31+g(d,p) geom=connectivity polar
 ---------------------------------------------------------------
 1/38=1,57=2/1;
 2/12=2,17=6,18=5,40=1/2;
 3/5=1,6=6,7=111,11=2,16=1,25=1,30=1,74=-40/1,2,8,3;
 4//1;
 5/5=2,38=5,98=1/2;
 8/6=1,10=2,108=10/1;
 9/15=5,41=10,42=1/14;
 10/5=4/2;
 10/5=4,13=10/2;
 6/7=2,8=2,9=2,10=2/1;
 99/5=1,9=1/99;
 -------
 Energy:
 -------
 Symbolic Z-matrix:
 Charge =  0 Multiplicity = 1
 N                    -0.98539  -1.77734   0.00557 
 C                     0.4262   -1.67163   0.07354 
 C                    -1.6325   -0.54639  -0.07092 
 C                    -0.63064   0.41459  -0.05474 
 C                     0.6475   -0.2346    0.03364 
 C                     1.64996   0.7262    0.05225 
 C                    -0.40798   1.85266  -0.09348 
 N                     1.00453   1.9572   -0.02357 
 O                     1.17388  -2.64613   0.14578 
 O                    -1.15379   2.82729  -0.1664 
 H                     1.45197   2.86087  -0.03461 
 H                    -1.43175  -2.68142   0.01518 
 C                     5.90043   0.3128    0.29005 
 C                     5.07215  -0.82057   0.28274 
 C                     3.68974  -0.67301   0.20469 
 H                     3.06049  -1.55884   0.19987 
 C                     3.09409   0.60253   0.13216 
 C                     3.94538   1.73128   0.1413 
 H                     3.53824   2.73644   0.08865 
 C                     5.32133   1.59256   0.21864 
 H                     5.9727    2.46013   0.22646 
 H                     5.48908  -1.81867   0.33732 
 O                     7.25627   0.28023   0.36391 
 C                     7.9258   -0.98706   0.44709 
 H                     7.67156  -1.59137  -0.43504 
 H                     7.58242  -1.51969   1.34371 
 C                     9.42473  -0.7303    0.513 
 H                     9.91363  -1.6957    0.70356 
 H                     9.63468  -0.09539   1.38362 
 C                     10.01135  -0.09475  -0.75456 
 H                     9.50394   0.85735  -0.94718 
 H                     9.79305  -0.7424   -1.61523 
 C                     11.52354   0.13515  -0.65685 
 H                     12.06099  -0.80669  -0.49341 
 H                     11.91651   0.58725  -1.5736 
 H                     11.76894   0.80535   0.17543 
 C                    -5.88552  -0.14922  -0.29874 
 C                    -5.30767  -1.42601  -0.22236 
 C                    -3.92147  -1.55069  -0.14836 
 H                    -3.51068  -2.55416  -0.09054 
 C                    -3.07731  -0.42517  -0.14797 
 C                    -3.67954   0.85448  -0.22631 
 H                    -3.05322   1.74221  -0.22775 
 C                    -5.0555    0.98638  -0.30046 
 H                    -5.51673   1.96664  -0.36103 
 H                    -5.91937  -2.31959  -0.22006 
 O                    -7.22075   0.08923  -0.37493 
 C                    -8.13561  -1.01562  -0.37197 
 H                    -7.99708  -1.60028   0.54872 
 H                    -7.92312  -1.66541  -1.23158 
 C                    -9.55184  -0.46313  -0.45248 
 H                    -10.23078  -1.31957  -0.56626 
 H                    -9.64459   0.13466  -1.3685 
 C                    -9.97177   0.37225   0.76439 
 H                    -9.28141   1.21579   0.87618 
 H                    -9.86662  -0.23757   1.67273 
 C                    -11.41029   0.89055   0.65905 
 H                    -12.12726   0.06489   0.57563 
 H                    -11.68467   1.48134   1.53931 
 H                    -11.53715   1.53007  -0.22239 
 
 Stoichiometry    C26H28N2O4
 Framework group  C1[X(C26H28N2O4)]
 Deg. of freedom   174
 Full point group                 C1      NOp   1
 Largest Abelian subgroup         C1      NOp   1
 Largest concise Abelian subgroup C1      NOp   1
                         Standard orientation:                         
 ---------------------------------------------------------------------
 Center     Atomic      Atomic             Coordinates (Angstroms)
 Number     Number       Type             X           Y           Z
 ---------------------------------------------------------------------
      1          7           0       -0.985394   -1.777339    0.005568
      2          6           0        0.426203   -1.671629    0.073540
      3          6           0       -1.632496   -0.546386   -0.070920
      4          6           0       -0.630640    0.414593   -0.054737
      5          6           0        0.647496   -0.234604    0.033640
      6          6           0        1.649956    0.726203    0.052252
      7          6           0       -0.407983    1.852657   -0.093480
      8          7           0        1.004534    1.957204   -0.023566
      9          8           0        1.173883   -2.646133    0.145776
     10          8           0       -1.153788    2.827289   -0.166404
     11          1           0        1.451966    2.860871   -0.034607
     12          1           0       -1.431751   -2.681420    0.015181
     13          6           0        5.900434    0.312803    0.290053
     14          6           0        5.072152   -0.820572    0.282743
     15          6           0        3.689738   -0.673005    0.204690
     16          1           0        3.060492   -1.558841    0.199874
     17          6           0        3.094090    0.602525    0.132156
     18          6           0        3.945378    1.731277    0.141297
     19          1           0        3.538239    2.736442    0.088651
     20          6           0        5.321333    1.592564    0.218640
     21          1           0        5.972696    2.460131    0.226462
     22          1           0        5.489078   -1.818671    0.337316
     23          8           0        7.256270    0.280234    0.363907
     24          6           0        7.925797   -0.987060    0.447094
     25          1           0        7.671564   -1.591365   -0.435037
     26          1           0        7.582420   -1.519692    1.343714
     27          6           0        9.424731   -0.730302    0.512998
     28          1           0        9.913626   -1.695698    0.703562
     29          1           0        9.634677   -0.095387    1.383619
     30          6           0       10.011350   -0.094745   -0.754563
     31          1           0        9.503944    0.857350   -0.947184
     32          1           0        9.793049   -0.742403   -1.615232
     33          6           0       11.523541    0.135153   -0.656854
     34          1           0       12.060992   -0.806687   -0.493412
     35          1           0       11.916510    0.587254   -1.573595
     36          1           0       11.768944    0.805353    0.175431
     37          6           0       -5.885521   -0.149223   -0.298735
     38          6           0       -5.307670   -1.426011   -0.222361
     39          6           0       -3.921471   -1.550691   -0.148363
     40          1           0       -3.510675   -2.554162   -0.090542
     41          6           0       -3.077314   -0.425169   -0.147969
     42          6           0       -3.679542    0.854481   -0.226314
     43          1           0       -3.053221    1.742214   -0.227750
     44          6           0       -5.055502    0.986378   -0.300461
     45          1           0       -5.516732    1.966638   -0.361031
     46          1           0       -5.919372   -2.319593   -0.220062
     47          8           0       -7.220746    0.089228   -0.374927
     48          6           0       -8.135613   -1.015621   -0.371972
     49          1           0       -7.997083   -1.600275    0.548720
     50          1           0       -7.923117   -1.665414   -1.231582
     51          6           0       -9.551838   -0.463127   -0.452484
     52          1           0      -10.230777   -1.319570   -0.566264
     53          1           0       -9.644589    0.134662   -1.368503
     54          6           0       -9.971771    0.372252    0.764392
     55          1           0       -9.281406    1.215792    0.876175
     56          1           0       -9.866618   -0.237565    1.672726
     57          6           0      -11.410289    0.890550    0.659051
     58          1           0      -12.127261    0.064890    0.575627
     59          1           0      -11.684671    1.481335    1.539313
     60          1           0      -11.537148    1.530074   -0.222388
 ---------------------------------------------------------------------
 Rotational constants (GHZ):      0.6489737      0.0311072      0.0299245
 Standard basis: 6-31+G(d,p) (6D, 7F)
 There are   748 symmetry adapted basis functions of A   symmetry.
 Integral buffers will be    262144 words long.
 Raffenetti 2 integral format.
 Two-electron integral symmetry is turned on.
   748 basis functions,  1220 primitive gaussians,   748 cartesian basis functions
   115 alpha electrons      115 beta electrons
       nuclear repulsion energy      2817.8621217340 Hartrees.
 NAtoms=   60 NActive=   60 NUniq=   60 SFac= 1.00D+00 NAtFMM=   50 NAOKFM=T Big=T
 One-electron integrals computed using PRISM.
 NBasis=   748 RedAO= T  NBF=   748
 NBsUse=   739 1.00D-06 NBFU=   739
 Harris functional with IExCor=20419 diagonalized for initial guess.
 ExpMin= 4.38D-02 ExpMax= 5.48D+03 ExpMxC= 8.25D+02 IAcc=2 IRadAn=         0 AccDes= 0.00D+00
 HarFok:  IExCor=20419 AccDes= 0.00D+00 IRadAn=         0 IDoV= 1
 ScaDFX=  1.000000  1.000000  1.000000  1.000000
 FoFCou: FMM=F IPFlag=           0 FMFlag=      100000 FMFlg1=        2001
         NFxFlg=           0 DoJE=T BraDBF=F KetDBF=T FulRan=T
         Omega=  0.000000  0.000000  1.000000  0.000000  0.000000 ICntrl=     500 IOpCl=  0
         NMat0=    1 NMatS0=    1 NMatT0=    0 NMatD0=    1 NMtDS0=    0 NMtDT0=    0
         I1Cent=           4 NGrid=           0.
 Petite list used in FoFCou.
 Initial guess orbital symmetries:
       Occupied  (A) (A) (A) (A) (A) (A) (A) (A) (A) (A) (A) (A)
                 (A) (A) (A) (A) (A) (A) (A) (A) (A) (A) (A) (A)
                 (A) (A) (A) (A) (A) (A) (A) (A) (A) (A) (A) (A)
                 (A) (A) (A) (A) (A) (A) (A) (A) (A) (A) (A) (A)
                 (A) (A) (A) (A) (A) (A) (A) (A) (A) (A) (A) (A)
                 (A) (A) (A) (A) (A) (A) (A) (A) (A) (A) (A) (A)
                 (A) (A) (A) (A) (A) (A) (A) (A) (A) (A) (A) (A)
                 (A) (A) (A) (A) (A) (A) (A) (A) (A) (A) (A) (A)
                 (A) (A) (A) (A) (A) (A) (A) (A) (A) (A) (A) (A)
                 (A) (A) (A) (A) (A) (A) (A)
       Virtual   (A) (A) (A) (A) (A) (A) (A) (A) (A) (A) (A) (A)
                 (A) (A) (A) (A) (A) (A) (A) (A) (A) (A) (A) (A)
                 (A) (A) (A) (A) (A) (A) (A) (A) (A) (A) (A) (A)
                 (A) (A) (A) (A) (A) (A) (A) (A) (A) (A) (A) (A)
                 (A) (A) (A) (A) (A) (A) (A) (A) (A) (A) (A) (A)
                 (A) (A) (A) (A) (A) (A) (A) (A) (A) (A) (A) (A)
                 (A) (A) (A) (A) (A) (A) (A) (A) (A) (A) (A) (A)
                 (A) (A) (A) (A) (A) (A) (A) (A) (A) (A) (A) (A)
                 (A) (A) (A) (A) (A) (A) (A) (A) (A) (A) (A) (A)
                 (A) (A) (A) (A) (A) (A) (A) (A) (A) (A) (A) (A)
                 (A) (A) (A) (A) (A) (A) (A) (A) (A) (A) (A) (A)
                 (A) (A) (A) (A) (A) (A) (A) (A) (A) (A) (A) (A)
                 (A) (A) (A) (A) (A) (A) (A) (A) (A) (A) (A) (A)
                 (A) (A) (A) (A) (A) (A) (A) (A) (A) (A) (A) (A)
                 (A) (A) (A) (A) (A) (A) (A) (A) (A) (A) (A) (A)
                 (A) (A) (A) (A) (A) (A) (A) (A) (A) (A) (A) (A)
                 (A) (A) (A) (A) (A) (A) (A) (A) (A) (A) (A) (A)
                 (A) (A) (A) (A) (A) (A) (A) (A) (A) (A) (A) (A)
                 (A) (A) (A) (A) (A) (A) (A) (A) (A) (A) (A) (A)
                 (A) (A) (A) (A) (A) (A) (A) (A) (A) (A) (A) (A)
                 (A) (A) (A) (A) (A) (A) (A) (A) (A) (A) (A) (A)
                 (A) (A) (A) (A) (A) (A) (A) (A) (A) (A) (A) (A)
                 (A) (A) (A) (A) (A) (A) (A) (A) (A) (A) (A) (A)
                 (A) (A) (A) (A) (A) (A) (A) (A) (A) (A) (A) (A)
                 (A) (A) (A) (A) (A) (A) (A) (A) (A) (A) (A) (A)
                 (A) (A) (A) (A) (A) (A) (A) (A) (A) (A) (A) (A)
                 (A) (A) (A) (A) (A) (A) (A) (A) (A) (A) (A) (A)
                 (A) (A) (A) (A) (A) (A) (A) (A) (A) (A) (A) (A)
                 (A) (A) (A) (A) (A) (A) (A) (A) (A) (A) (A) (A)
                 (A) (A) (A) (A) (A) (A) (A) (A) (A) (A) (A) (A)
                 (A) (A) (A) (A) (A) (A) (A) (A) (A) (A) (A) (A)
                 (A) (A) (A) (A) (A) (A) (A) (A) (A) (A) (A) (A)
                 (A) (A) (A) (A) (A) (A) (A) (A) (A) (A) (A) (A)
                 (A) (A) (A) (A) (A) (A) (A) (A) (A) (A) (A) (A)
                 (A) (A) (A) (A) (A) (A) (A) (A) (A) (A) (A) (A)
                 (A) (A) (A) (A) (A) (A) (A) (A) (A) (A) (A) (A)
                 (A) (A) (A) (A) (A) (A) (A) (A) (A) (A) (A) (A)
                 (A) (A) (A) (A) (A) (A) (A) (A) (A) (A) (A) (A)
                 (A) (A) (A) (A) (A) (A) (A) (A) (A) (A) (A) (A)
                 (A) (A) (A) (A) (A) (A) (A) (A) (A) (A) (A) (A)
                 (A) (A) (A) (A) (A) (A) (A) (A) (A) (A) (A) (A)
                 (A) (A) (A) (A) (A) (A) (A) (A) (A) (A) (A) (A)
                 (A) (A) (A) (A) (A) (A) (A) (A) (A) (A) (A) (A)
                 (A) (A) (A) (A) (A) (A) (A) (A) (A) (A) (A) (A)
                 (A) (A) (A) (A) (A) (A) (A) (A) (A) (A) (A) (A)
                 (A) (A) (A) (A) (A) (A) (A) (A) (A) (A) (A) (A)
                 (A) (A) (A) (A) (A) (A) (A) (A) (A) (A) (A) (A)
                 (A) (A) (A) (A) (A) (A) (A) (A) (A) (A) (A) (A)
                 (A) (A) (A) (A) (A) (A) (A) (A) (A) (A) (A) (A)
                 (A) (A) (A) (A) (A) (A) (A) (A) (A) (A) (A) (A)
                 (A) (A) (A) (A) (A) (A) (A) (A) (A) (A) (A) (A)
                 (A) (A) (A) (A) (A) (A) (A) (A) (A) (A) (A) (A)
 The electronic state of the initial guess is 1-A.
 Requested convergence on RMS density matrix=1.00D-08 within 128 cycles.
 Requested convergence on MAX density matrix=1.00D-06.
 Requested convergence on             energy=1.00D-06.
 No special actions if energy rises.
 FoFJK:  IHMeth= 1 ICntrl=     0 DoSepK=T KAlg= 1 I1Cent= 0 FoldK=F
 FoFJK:  IHMeth= 1 ICntrl=     0 DoSepK=T KAlg= 1 I1Cent= 0 FoldK=F
 FoFJK:  IHMeth= 1 ICntrl=     0 DoSepK=T KAlg= 1 I1Cent= 0 FoldK=F
 FoFJK:  IHMeth= 1 ICntrl=     0 DoSepK=T KAlg= 1 I1Cent= 0 FoldK=F
 FoFJK:  IHMeth= 1 ICntrl=     0 DoSepK=T KAlg= 1 I1Cent= 0 FoldK=F
 FoFJK:  IHMeth= 1 ICntrl=     0 DoSepK=T KAlg= 1 I1Cent= 0 FoldK=F
 FoFJK:  IHMeth= 1 ICntrl=     0 DoSepK=T KAlg= 1 I1Cent= 0 FoldK=F
 FoFJK:  IHMeth= 1 ICntrl=     0 DoSepK=T KAlg= 1 I1Cent= 0 FoldK=F
 FoFJK:  IHMeth= 1 ICntrl=     0 DoSepK=T KAlg= 1 I1Cent= 0 FoldK=F
 FoFJK:  IHMeth= 1 ICntrl=     0 DoSepK=T KAlg= 1 I1Cent= 0 FoldK=F
 FoFJK:  IHMeth= 1 ICntrl=     0 DoSepK=T KAlg= 1 I1Cent= 0 FoldK=F
 FoFJK:  IHMeth= 1 ICntrl=     0 DoSepK=T KAlg= 1 I1Cent= 0 FoldK=F
 FoFJK:  IHMeth= 1 ICntrl=     0 DoSepK=T KAlg= 1 I1Cent= 0 FoldK=F
 FoFJK:  IHMeth= 1 ICntrl=     0 DoSepK=T KAlg= 1 I1Cent= 0 FoldK=F
 FoFJK:  IHMeth= 1 ICntrl=     0 DoSepK=T KAlg= 1 I1Cent= 0 FoldK=F
 FoFJK:  IHMeth= 1 ICntrl=     0 DoSepK=T KAlg= 1 I1Cent= 0 FoldK=F
 FoFJK:  IHMeth= 1 ICntrl=     0 DoSepK=T KAlg= 1 I1Cent= 0 FoldK=F
 FoFJK:  IHMeth= 1 ICntrl=     0 DoSepK=T KAlg= 1 I1Cent= 0 FoldK=F
 FoFJK:  IHMeth= 1 ICntrl=     0 DoSepK=T KAlg= 1 I1Cent= 0 FoldK=F
 Restarting incremental Fock formation.
 FoFJK:  IHMeth= 1 ICntrl=     0 DoSepK=T KAlg= 1 I1Cent= 0 FoldK=F
 FoFJK:  IHMeth= 1 ICntrl=     0 DoSepK=T KAlg= 1 I1Cent= 0 FoldK=F
 FoFJK:  IHMeth= 1 ICntrl=     0 DoSepK=T KAlg= 1 I1Cent= 0 FoldK=F
 FoFJK:  IHMeth= 1 ICntrl=     0 DoSepK=T KAlg= 1 I1Cent= 0 FoldK=F
 FoFJK:  IHMeth= 1 ICntrl=     0 DoSepK=T KAlg= 1 I1Cent= 0 FoldK=F
 FoFJK:  IHMeth= 1 ICntrl=     0 DoSepK=T KAlg= 1 I1Cent= 0 FoldK=F
 SCF Done:  E(RCAM-B3LYP) =  -1417.41660639     A.U. after   25 cycles
             Convg  =    0.7938D-08             -V/T =  2.0094
 ExpMin= 4.38D-02 ExpMax= 5.48D+03 ExpMxC= 8.25D+02 IAcc=3 IRadAn=         5 AccDes= 0.00D+00
 HarFok:  IExCor=  205 AccDes= 0.00D+00 IRadAn=         5 IDoV=-2
 ScaDFX=  1.000000  1.000000  1.000000  1.000000
 Range of M.O.s used for correlation:    33   739
 NBasis=   748 NAE=   115 NBE=   115 NFC=    32 NFV=     0
 NROrb=    707 NOA=    83 NOB=    83 NVA=   624 NVB=   624

 **** Warning!!: The largest alpha MO coefficient is  0.11448768D+03

 Orbital symmetries:
       Occupied  (A) (A) (A) (A) (A) (A) (A) (A) (A) (A) (A) (A)
                 (A) (A) (A) (A) (A) (A) (A) (A) (A) (A) (A) (A)
                 (A) (A) (A) (A) (A) (A) (A) (A) (A) (A) (A) (A)
                 (A) (A) (A) (A) (A) (A) (A) (A) (A) (A) (A) (A)
                 (A) (A) (A) (A) (A) (A) (A) (A) (A) (A) (A) (A)
                 (A) (A) (A) (A) (A) (A) (A) (A) (A) (A) (A) (A)
                 (A) (A) (A) (A) (A) (A) (A) (A) (A) (A) (A) (A)
                 (A) (A) (A) (A) (A) (A) (A) (A) (A) (A) (A) (A)
                 (A) (A) (A) (A) (A) (A) (A) (A) (A) (A) (A) (A)
                 (A) (A) (A) (A) (A) (A) (A)
       Virtual   (A) (A) (A) (A) (A) (A) (A) (A) (A) (A) (A) (A)
                 (A) (A) (A) (A) (A) (A) (A) (A) (A) (A) (A) (A)
                 (A) (A) (A) (A) (A) (A) (A) (A) (A) (A) (A) (A)
                 (A) (A) (A) (A) (A) (A) (A) (A) (A) (A) (A) (A)
                 (A) (A) (A) (A) (A) (A) (A) (A) (A) (A) (A) (A)
                 (A) (A) (A) (A) (A) (A) (A) (A) (A) (A) (A) (A)
                 (A) (A) (A) (A) (A) (A) (A) (A) (A) (A) (A) (A)
                 (A) (A) (A) (A) (A) (A) (A) (A) (A) (A) (A) (A)
                 (A) (A) (A) (A) (A) (A) (A) (A) (A) (A) (A) (A)
                 (A) (A) (A) (A) (A) (A) (A) (A) (A) (A) (A) (A)
                 (A) (A) (A) (A) (A) (A) (A) (A) (A) (A) (A) (A)
                 (A) (A) (A) (A) (A) (A) (A) (A) (A) (A) (A) (A)
                 (A) (A) (A) (A) (A) (A) (A) (A) (A) (A) (A) (A)
                 (A) (A) (A) (A) (A) (A) (A) (A) (A) (A) (A) (A)
                 (A) (A) (A) (A) (A) (A) (A) (A) (A) (A) (A) (A)
                 (A) (A) (A) (A) (A) (A) (A) (A) (A) (A) (A) (A)
                 (A) (A) (A) (A) (A) (A) (A) (A) (A) (A) (A) (A)
                 (A) (A) (A) (A) (A) (A) (A) (A) (A) (A) (A) (A)
                 (A) (A) (A) (A) (A) (A) (A) (A) (A) (A) (A) (A)
                 (A) (A) (A) (A) (A) (A) (A) (A) (A) (A) (A) (A)
                 (A) (A) (A) (A) (A) (A) (A) (A) (A) (A) (A) (A)
                 (A) (A) (A) (A) (A) (A) (A) (A) (A) (A) (A) (A)
                 (A) (A) (A) (A) (A) (A) (A) (A) (A) (A) (A) (A)
                 (A) (A) (A) (A) (A) (A) (A) (A) (A) (A) (A) (A)
                 (A) (A) (A) (A) (A) (A) (A) (A) (A) (A) (A) (A)
                 (A) (A) (A) (A) (A) (A) (A) (A) (A) (A) (A) (A)
                 (A) (A) (A) (A) (A) (A) (A) (A) (A) (A) (A) (A)
                 (A) (A) (A) (A) (A) (A) (A) (A) (A) (A) (A) (A)
                 (A) (A) (A) (A) (A) (A) (A) (A) (A) (A) (A) (A)
                 (A) (A) (A) (A) (A) (A) (A) (A) (A) (A) (A) (A)
                 (A) (A) (A) (A) (A) (A) (A) (A) (A) (A) (A) (A)
                 (A) (A) (A) (A) (A) (A) (A) (A) (A) (A) (A) (A)
                 (A) (A) (A) (A) (A) (A) (A) (A) (A) (A) (A) (A)
                 (A) (A) (A) (A) (A) (A) (A) (A) (A) (A) (A) (A)
                 (A) (A) (A) (A) (A) (A) (A) (A) (A) (A) (A) (A)
                 (A) (A) (A) (A) (A) (A) (A) (A) (A) (A) (A) (A)
                 (A) (A) (A) (A) (A) (A) (A) (A) (A) (A) (A) (A)
                 (A) (A) (A) (A) (A) (A) (A) (A) (A) (A) (A) (A)
                 (A) (A) (A) (A) (A) (A) (A) (A) (A) (A) (A) (A)
                 (A) (A) (A) (A) (A) (A) (A) (A) (A) (A) (A) (A)
                 (A) (A) (A) (A) (A) (A) (A) (A) (A) (A) (A) (A)
                 (A) (A) (A) (A) (A) (A) (A) (A) (A) (A) (A) (A)
                 (A) (A) (A) (A) (A) (A) (A) (A) (A) (A) (A) (A)
                 (A) (A) (A) (A) (A) (A) (A) (A) (A) (A) (A) (A)
                 (A) (A) (A) (A) (A) (A) (A) (A) (A) (A) (A) (A)
                 (A) (A) (A) (A) (A) (A) (A) (A) (A) (A) (A) (A)
                 (A) (A) (A) (A) (A) (A) (A) (A) (A) (A) (A) (A)
                 (A) (A) (A) (A) (A) (A) (A) (A) (A) (A) (A) (A)
                 (A) (A) (A) (A) (A) (A) (A) (A) (A) (A) (A) (A)
                 (A) (A) (A) (A) (A) (A) (A) (A) (A) (A) (A) (A)
                 (A) (A) (A) (A) (A) (A) (A) (A) (A) (A) (A) (A)
                 (A) (A) (A) (A) (A) (A) (A) (A) (A) (A) (A) (A)
    40 initial guesses have been made.
 Convergence on wavefunction:    0.000001000000000
 Iteration     1 Dimension    40 NMult    40
 CISAX will form    14 AO SS matrices at one time.
 FoFJK:  IHMeth= 1 ICntrl=     0 DoSepK=T KAlg= 1 I1Cent= 0 FoldK=F
 FoFJK:  IHMeth= 1 ICntrl=     0 DoSepK=T KAlg= 1 I1Cent= 0 FoldK=F
 FoFJK:  IHMeth= 1 ICntrl=     0 DoSepK=T KAlg= 1 I1Cent= 0 FoldK=F
 FoFJK:  IHMeth= 1 ICntrl=     0 DoSepK=T KAlg= 1 I1Cent= 0 FoldK=F
 FoFJK:  IHMeth= 1 ICntrl=     0 DoSepK=T KAlg= 1 I1Cent= 0 FoldK=F
 FoFJK:  IHMeth= 1 ICntrl=     0 DoSepK=T KAlg= 1 I1Cent= 0 FoldK=F
 New state      2 was old state      8
 New state      3 was old state     10
 New state      4 was old state      3
 New state      5 was old state      4
 New state      6 was old state      5
 No map to state      8
 New state      9 was old state      2
 New state     10 was old state      6
 Iteration     2 Dimension    60 NMult    60
 FoFJK:  IHMeth= 1 ICntrl=     0 DoSepK=T KAlg= 1 I1Cent= 0 FoldK=F
 FoFJK:  IHMeth= 1 ICntrl=     0 DoSepK=T KAlg= 1 I1Cent= 0 FoldK=F
 New state      6 was old state      9
 New state      7 was old state      8
 New state      8 was old state      6
 New state      9 was old state      7
 Iteration     3 Dimension    80 NMult    80
 FoFJK:  IHMeth= 1 ICntrl=     0 DoSepK=T KAlg= 1 I1Cent= 0 FoldK=F
 FoFJK:  IHMeth= 1 ICntrl=     0 DoSepK=T KAlg= 1 I1Cent= 0 FoldK=F
 Iteration     4 Dimension   100 NMult   100
 FoFJK:  IHMeth= 1 ICntrl=     0 DoSepK=T KAlg= 1 I1Cent= 0 FoldK=F
 FoFJK:  IHMeth= 1 ICntrl=     0 DoSepK=T KAlg= 1 I1Cent= 0 FoldK=F
 Iteration     5 Dimension   120 NMult   120
 FoFJK:  IHMeth= 1 ICntrl=     0 DoSepK=T KAlg= 1 I1Cent= 0 FoldK=F
 FoFJK:  IHMeth= 1 ICntrl=     0 DoSepK=T KAlg= 1 I1Cent= 0 FoldK=F
 Iteration     6 Dimension   140 NMult   140
 FoFJK:  IHMeth= 1 ICntrl=     0 DoSepK=T KAlg= 1 I1Cent= 0 FoldK=F
 FoFJK:  IHMeth= 1 ICntrl=     0 DoSepK=T KAlg= 1 I1Cent= 0 FoldK=F
 Iteration     7 Dimension   160 NMult   160
 FoFJK:  IHMeth= 1 ICntrl=     0 DoSepK=T KAlg= 1 I1Cent= 0 FoldK=F
 FoFJK:  IHMeth= 1 ICntrl=     0 DoSepK=T KAlg= 1 I1Cent= 0 FoldK=F
 Iteration     8 Dimension   180 NMult   180
 FoFJK:  IHMeth= 1 ICntrl=     0 DoSepK=T KAlg= 1 I1Cent= 0 FoldK=F
 FoFJK:  IHMeth= 1 ICntrl=     0 DoSepK=T KAlg= 1 I1Cent= 0 FoldK=F
 Iteration     9 Dimension   200 NMult   200
 FoFJK:  IHMeth= 1 ICntrl=     0 DoSepK=T KAlg= 1 I1Cent= 0 FoldK=F
 FoFJK:  IHMeth= 1 ICntrl=     0 DoSepK=T KAlg= 1 I1Cent= 0 FoldK=F
 Davidson failed to converge within maximum sub-space dimensions.
  Restart with updated initial guess:
 Iteration     1 Dimension    40 NMult   240
 FoFJK:  IHMeth= 1 ICntrl=     0 DoSepK=T KAlg= 1 I1Cent= 0 FoldK=F
 FoFJK:  IHMeth= 1 ICntrl=     0 DoSepK=T KAlg= 1 I1Cent= 0 FoldK=F
 FoFJK:  IHMeth= 1 ICntrl=     0 DoSepK=T KAlg= 1 I1Cent= 0 FoldK=F
 FoFJK:  IHMeth= 1 ICntrl=     0 DoSepK=T KAlg= 1 I1Cent= 0 FoldK=F
 FoFJK:  IHMeth= 1 ICntrl=     0 DoSepK=T KAlg= 1 I1Cent= 0 FoldK=F
 FoFJK:  IHMeth= 1 ICntrl=     0 DoSepK=T KAlg= 1 I1Cent= 0 FoldK=F
 Iteration     2 Dimension    60 NMult   260
 FoFJK:  IHMeth= 1 ICntrl=     0 DoSepK=T KAlg= 1 I1Cent= 0 FoldK=F
 FoFJK:  IHMeth= 1 ICntrl=     0 DoSepK=T KAlg= 1 I1Cent= 0 FoldK=F
 Iteration     3 Dimension    62 NMult   262
 FoFJK:  IHMeth= 1 ICntrl=     0 DoSepK=T KAlg= 1 I1Cent= 0 FoldK=F
 FoFJK:  IHMeth= 1 ICntrl=     0 DoSepK=T KAlg= 1 I1Cent= 0 FoldK=F
 ***********************************************************************
 Excited states from <AA,BB:AA,BB> singles matrix:
 ***********************************************************************
 
 Ground to excited state transition densities written to RWF  633
 Ground to excited state transition electric dipole moments (Au):
       state          X           Y           Z        Dip. S.      Osc.
         1        -3.2422     -1.1709     -0.0973     11.8922      0.8158
         2         0.0021     -0.0608      0.0035      0.0037      0.0004
         3         0.0013      0.0000     -0.0163      0.0003      0.0000
         4         0.0343      0.1427     -0.0067      0.0216      0.0023
         5         1.8858     -0.2691      0.0836      3.6356      0.4014
         6         1.7142     -0.4075      0.0862      3.1119      0.3449
         7         0.0145     -0.0054     -0.0001      0.0002      0.0000
         8         0.4843     -0.2787      0.0282      0.3130      0.0353
         9        -0.2554     -0.1663     -0.0054      0.0929      0.0105
        10         0.0009     -0.0025      0.0019      0.0000      0.0000
 Ground to excited state transition velocity dipole moments (Au):
       state          X           Y           Z        Dip. S.      Osc.
         1         0.3248      0.1234      0.0096      0.1208      0.7828
         2        -0.0002      0.0092     -0.0005      0.0001      0.0004
         3        -0.0004      0.0002      0.0075      0.0001      0.0002
         4        -0.0054     -0.0237      0.0011      0.0006      0.0025
         5        -0.2988      0.0451     -0.0133      0.0915      0.3683
         6        -0.2723      0.0682     -0.0138      0.0790      0.3167
         7        -0.0024      0.0010      0.0003      0.0000      0.0000
         8        -0.0809      0.0500     -0.0049      0.0091      0.0358
         9         0.0408      0.0317      0.0007      0.0027      0.0105
        10        -0.0002      0.0004     -0.0002      0.0000      0.0000
 Ground to excited state transition magnetic dipole moments (Au):
       state          X           Y           Z
         1         0.0107     -0.0120     -0.1412
         2         0.0391     -0.0417     -0.7572
         3        -0.0064      0.0104     -0.0043
         4         0.0352      0.0163     -0.7072
         5         0.0128      0.0271     -0.2453
         6        -0.0493      0.0057      0.8805
         7         0.4586     -0.6663      0.0562
         8        -0.0159      0.0165      0.1509
         9        -0.0082     -0.0034      0.2032
        10         0.1107      0.0736      0.0041
 Ground to excited state transition velocity quadrupole moments (Au):
       state          XX          YY          ZZ          XY          XZ          YZ
         1         0.0048      0.0380     -0.0001     -0.0888      0.0048     -0.0111
         2        -1.6029      0.0225      0.0081     -0.1128     -0.0547     -0.0075
         3         0.0001     -0.0003     -0.0001      0.0001      0.0018      0.0006
         4         4.4366     -0.5296      0.0532      0.4453      0.1417      0.0467
         5         2.8302     -0.1916      0.0069      0.1578      0.0881      0.0204
         6        -3.2751      0.3113     -0.0091      0.1178     -0.1163     -0.0045
         7        -0.0406      0.0049      0.0029      0.0070      0.0397      0.0193
         8         0.1053      0.0277      0.0058      0.5254     -0.0135      0.0288
         9        -1.0448      0.0546     -0.0326     -0.2715     -0.0256     -0.0191
        10        -0.0054      0.0047     -0.0073     -0.0030     -0.0097      0.0661
 <0|del|b> * <b|rxdel|0> + <0|del|b> * <b|delr+rdel|0>
 Rotatory Strengths (R) in cgs (10**-40 erg-esu-cm/Gauss)
       state          XX          YY          ZZ    R(velocity)
         1       -14.7216     -2.1657     21.2665      1.4597
         2         1.4243      0.8240     -2.1705      0.0259
         3        -0.0689     -0.0715      0.0128     -0.0426
         4         5.9599     -3.8646     -8.2019     -2.0355
         5        -3.3934     -9.7223     15.9285      0.9376
         6       -11.6137      8.7532      9.9120      2.3505
         7        -1.3850     -2.3486     -3.4443     -2.3927
         8        -3.8239      1.6734      7.8790      1.9095
         9         1.3737     -1.6745     -0.9816     -0.4274
        10         0.0571     -0.0797      0.0249      0.0008
 1/2[<0|r|b>*<b|rxdel|0> + (<0|rxdel|b>*<b|r|0>)*]
 Rotatory Strengths (R) in cgs (10**-40 erg-esu-cm/Gauss)
       state          XX          YY          ZZ     R(length)
         1        24.5209     -9.9723     -9.7134      1.6118
         2        -0.0594     -1.7935      1.8905      0.0126
         3         0.0059      0.0001     -0.0496     -0.0145
         4        -0.8550     -1.6474     -3.3364     -1.9463
         5       -17.0782      5.1542     14.4913      0.8558
         6        59.7528      1.6546    -53.6522      2.5851
         7        -4.7088     -2.5545      0.0053     -2.4193
         8         5.4440      3.2546     -3.0146      1.8947
         9        -1.4839     -0.3944      0.7732     -0.3684
        10        -0.0690      0.1308     -0.0054      0.0188
  1/2[<0|del|b>*<b|r|0> + (<0|r|b>*<b|del|0>)*] (Au)
       state          X           Y           Z        Dip. S.   Osc.(frdel)
         1        -1.0531     -0.1445     -0.0009      1.1985      0.7990
         2         0.0000     -0.0006      0.0000      0.0006      0.0004
         3         0.0000      0.0000     -0.0001      0.0001      0.0001
         4        -0.0002     -0.0034      0.0000      0.0036      0.0024
         5        -0.5635     -0.0121     -0.0011      0.5767      0.3845
         6        -0.4667     -0.0278     -0.0012      0.4957      0.3305
         7         0.0000      0.0000      0.0000      0.0000      0.0000
         8        -0.0392     -0.0139     -0.0001      0.0533      0.0355
         9        -0.0104     -0.0053      0.0000      0.0157      0.0105
        10         0.0000      0.0000      0.0000      0.0000      0.0000

 Excitation energies and oscillator strengths:
 
 Excited State   1:      Singlet-A      2.8002 eV  442.77 nm  f=0.8158  <S**2>=0.000
     115 ->116         0.70166
 This state for optimization and/or second-order correction.
 Total Energy, E(TD-HF/TD-KS) =  -1417.31370155    
 Copying the excited state density for this state as the 1-particle RhoCI density.
 
 Excited State   2:      Singlet-A      3.9977 eV  310.14 nm  f=0.0004  <S**2>=0.000
     109 ->116         0.36079
     112 ->116         0.53141
     114 ->116         0.23340
 
 Excited State   3:      Singlet-A      4.1298 eV  300.22 nm  f=0.0000  <S**2>=0.000
     108 ->117         0.12997
     111 ->116         0.66612
     111 ->126         0.10065
 
 Excited State   4:      Singlet-A      4.3225 eV  286.83 nm  f=0.0023  <S**2>=0.000
     109 ->116         0.12328
     114 ->116        -0.11213
     115 ->117         0.65831
 
 Excited State   5:      Singlet-A      4.5060 eV  275.15 nm  f=0.4014  <S**2>=0.000
     112 ->116         0.12131
     113 ->116         0.50864
     114 ->116        -0.38810
     114 ->117         0.10844
     115 ->118        -0.11956
 
 Excited State   6:      Singlet-A      4.5237 eV  274.08 nm  f=0.3449  <S**2>=0.000
     112 ->116        -0.18032
     113 ->116         0.41960
     113 ->117         0.10250
     114 ->116         0.45570
     114 ->117         0.11013
     115 ->117         0.11482
     115 ->120        -0.11554
 
 Excited State   7:      Singlet-A      4.5747 eV  271.02 nm  f=0.0000  <S**2>=0.000
     108 ->116         0.63348
     108 ->126         0.10416
     111 ->117         0.20771
     111 ->135        -0.10686
 
 Excited State   8:      Singlet-A      4.5974 eV  269.68 nm  f=0.0353  <S**2>=0.000
     109 ->116         0.23749
     110 ->116        -0.22308
     110 ->117        -0.13701
     112 ->116        -0.12358
     113 ->116         0.13593
     113 ->118        -0.10448
     114 ->118        -0.19870
     115 ->118         0.50366
 
 Excited State   9:      Singlet-A      4.6236 eV  268.16 nm  f=0.0105  <S**2>=0.000
     109 ->116        -0.20139
     110 ->116        -0.28630
     112 ->117        -0.11031
     114 ->116         0.18616
     114 ->120         0.18522
     115 ->120         0.47822
 
 Excited State  10:      Singlet-A      5.0172 eV  247.12 nm  f=0.0000  <S**2>=0.000
     115 ->119         0.50635
     115 ->121         0.30559
     115 ->123         0.20045
     115 ->129        -0.14455
     115 ->131         0.19269
 SavETr:  write IOETrn=   770 NScale= 10 NData=  16 NLR=1 LETran=     180.
 FoFJK:  IHMeth= 1 ICntrl=     0 DoSepK=T KAlg= 1 I1Cent= 0 FoldK=F
 FoFJK:  IHMeth= 1 ICntrl=     0 DoSepK=T KAlg= 1 I1Cent= 0 FoldK=F
          IDoAtm=11111111111111111111111111111111111111111111111111
          IDoAtm=1111111111
          Differentiating once with respect to electric field.
                with respect to dipole field.
          Differentiating once with respect to nuclear coordinates.
          There are     1 degrees of freedom in the 1st order CPHF.  IDoFFX=0.
 FoFJK:  IHMeth= 1 ICntrl=     0 DoSepK=T KAlg= 1 I1Cent= 0 FoldK=F
 LinEq1:  Iter=  0 NonCon=     1 RMS=1.31D-03 Max=1.84D-01
 AX will form     1 AO Fock derivatives at one time.
 FoFJK:  IHMeth= 1 ICntrl=     0 DoSepK=T KAlg= 1 I1Cent= 0 FoldK=F
 LinEq1:  Iter=  1 NonCon=     1 RMS=6.66D-04 Max=5.90D-02
 FoFJK:  IHMeth= 1 ICntrl=     0 DoSepK=T KAlg= 1 I1Cent= 0 FoldK=F
 LinEq1:  Iter=  2 NonCon=     1 RMS=2.76D-04 Max=1.76D-02
 FoFJK:  IHMeth= 1 ICntrl=     0 DoSepK=T KAlg= 1 I1Cent= 0 FoldK=F
 LinEq1:  Iter=  3 NonCon=     1 RMS=1.13D-04 Max=1.07D-02
 FoFJK:  IHMeth= 1 ICntrl=     0 DoSepK=T KAlg= 1 I1Cent= 0 FoldK=F
 LinEq1:  Iter=  4 NonCon=     1 RMS=7.15D-05 Max=5.26D-03
 FoFJK:  IHMeth= 1 ICntrl=     0 DoSepK=T KAlg= 1 I1Cent= 0 FoldK=F
 LinEq1:  Iter=  5 NonCon=     1 RMS=3.74D-05 Max=2.27D-03
 FoFJK:  IHMeth= 1 ICntrl=     0 DoSepK=T KAlg= 1 I1Cent= 0 FoldK=F
 LinEq1:  Iter=  6 NonCon=     1 RMS=2.36D-05 Max=1.66D-03
 FoFJK:  IHMeth= 1 ICntrl=     0 DoSepK=T KAlg= 1 I1Cent= 0 FoldK=F
 LinEq1:  Iter=  7 NonCon=     1 RMS=1.20D-05 Max=6.19D-04
 FoFJK:  IHMeth= 1 ICntrl=     0 DoSepK=T KAlg= 1 I1Cent= 0 FoldK=F
 LinEq1:  Iter=  8 NonCon=     1 RMS=7.03D-06 Max=4.31D-04
 FoFJK:  IHMeth= 1 ICntrl=     0 DoSepK=T KAlg= 1 I1Cent= 0 FoldK=F
 LinEq1:  Iter=  9 NonCon=     1 RMS=3.71D-06 Max=2.92D-04
 FoFJK:  IHMeth= 1 ICntrl=     0 DoSepK=T KAlg= 1 I1Cent= 0 FoldK=F
 LinEq1:  Iter= 10 NonCon=     1 RMS=1.98D-06 Max=1.39D-04
 FoFJK:  IHMeth= 1 ICntrl=     0 DoSepK=T KAlg= 1 I1Cent= 0 FoldK=F
 LinEq1:  Iter= 11 NonCon=     1 RMS=1.14D-06 Max=1.18D-04
 FoFJK:  IHMeth= 1 ICntrl=     0 DoSepK=T KAlg= 1 I1Cent= 0 FoldK=F
 LinEq1:  Iter= 12 NonCon=     1 RMS=6.33D-07 Max=3.78D-05
 FoFJK:  IHMeth= 1 ICntrl=     0 DoSepK=T KAlg= 1 I1Cent= 0 FoldK=F
 LinEq1:  Iter= 13 NonCon=     1 RMS=3.95D-07 Max=3.30D-05
 FoFJK:  IHMeth= 1 ICntrl=     0 DoSepK=T KAlg= 1 I1Cent= 0 FoldK=F
 LinEq1:  Iter= 14 NonCon=     1 RMS=2.10D-07 Max=9.89D-06
 FoFJK:  IHMeth= 1 ICntrl=     0 DoSepK=T KAlg= 1 I1Cent= 0 FoldK=F
 LinEq1:  Iter= 15 NonCon=     1 RMS=8.11D-08 Max=4.80D-06
 FoFJK:  IHMeth= 1 ICntrl=     0 DoSepK=T KAlg= 1 I1Cent= 0 FoldK=F
 LinEq1:  Iter= 16 NonCon=     1 RMS=4.82D-08 Max=2.13D-06
 FoFJK:  IHMeth= 1 ICntrl=     0 DoSepK=T KAlg= 1 I1Cent= 0 FoldK=F
 LinEq1:  Iter= 17 NonCon=     1 RMS=2.57D-08 Max=1.63D-06
 FoFJK:  IHMeth= 1 ICntrl=     0 DoSepK=T KAlg= 1 I1Cent= 0 FoldK=F
 LinEq1:  Iter= 18 NonCon=     1 RMS=1.84D-08 Max=8.80D-07
 FoFJK:  IHMeth= 1 ICntrl=     0 DoSepK=T KAlg= 1 I1Cent= 0 FoldK=F
 LinEq1:  Iter= 19 NonCon=     1 RMS=7.90D-09 Max=3.45D-07
 FoFJK:  IHMeth= 1 ICntrl=     0 DoSepK=T KAlg= 1 I1Cent= 0 FoldK=F
 LinEq1:  Iter= 20 NonCon=     1 RMS=5.10D-09 Max=2.75D-07
 FoFJK:  IHMeth= 1 ICntrl=     0 DoSepK=T KAlg= 1 I1Cent= 0 FoldK=F
 LinEq1:  Iter= 21 NonCon=     1 RMS=2.22D-09 Max=1.00D-07
 FoFJK:  IHMeth= 1 ICntrl=     0 DoSepK=T KAlg= 1 I1Cent= 0 FoldK=F
 LinEq1:  Iter= 22 NonCon=     1 RMS=1.35D-09 Max=7.58D-08
 FoFJK:  IHMeth= 1 ICntrl=     0 DoSepK=T KAlg= 1 I1Cent= 0 FoldK=F
 LinEq1:  Iter= 23 NonCon=     1 RMS=5.17D-10 Max=2.93D-08
 FoFJK:  IHMeth= 1 ICntrl=     0 DoSepK=T KAlg= 1 I1Cent= 0 FoldK=F
 LinEq1:  Iter= 24 NonCon=     1 RMS=3.48D-10 Max=1.93D-08
 FoFJK:  IHMeth= 1 ICntrl=     0 DoSepK=T KAlg= 1 I1Cent= 0 FoldK=F
 LinEq1:  Iter= 25 NonCon=     1 RMS=1.37D-10 Max=7.96D-09
 FoFJK:  IHMeth= 1 ICntrl=     0 DoSepK=T KAlg= 1 I1Cent= 0 FoldK=F
 LinEq1:  Iter= 26 NonCon=     1 RMS=6.87D-11 Max=3.71D-09
 FoFJK:  IHMeth= 1 ICntrl=     0 DoSepK=T KAlg= 1 I1Cent= 0 FoldK=F
 LinEq1:  Iter= 27 NonCon=     1 RMS=3.02D-11 Max=1.25D-09
 FoFJK:  IHMeth= 1 ICntrl=     0 DoSepK=T KAlg= 1 I1Cent= 0 FoldK=F
 LinEq1:  Iter= 28 NonCon=     0 RMS=1.28D-11 Max=4.71D-10
 Linear equations converged to 1.000D-10 1.000D-09 after    28 iterations.
 FoFJK:  IHMeth= 1 ICntrl=     0 DoSepK=T KAlg= 1 I1Cent= 0 FoldK=F
 End of Minotr Frequency-dependent properties file   721 does not exist.
 End of Minotr Frequency-dependent properties file   722 does not exist.
          Differentiating once with respect to electric field.
                with respect to dipole field.
          Electric field/nuclear overlap derivatives assumed to be zero.
          There are     1 degrees of freedom in the 1st order CPHF.  IDoFFX=0.
 FoFJK:  IHMeth= 1 ICntrl=     0 DoSepK=T KAlg= 1 I1Cent= 0 FoldK=F
 LinEq1:  Iter=  0 NonCon=     1 RMS=1.31D-03 Max=1.84D-01
 AX will form     1 AO Fock derivatives at one time.
 FoFJK:  IHMeth= 1 ICntrl=     0 DoSepK=T KAlg= 1 I1Cent= 0 FoldK=F
 LinEq1:  Iter=  1 NonCon=     1 RMS=6.66D-04 Max=5.90D-02
 FoFJK:  IHMeth= 1 ICntrl=     0 DoSepK=T KAlg= 1 I1Cent= 0 FoldK=F
 LinEq1:  Iter=  2 NonCon=     1 RMS=2.76D-04 Max=1.76D-02
 FoFJK:  IHMeth= 1 ICntrl=     0 DoSepK=T KAlg= 1 I1Cent= 0 FoldK=F
 LinEq1:  Iter=  3 NonCon=     1 RMS=1.13D-04 Max=1.07D-02
 FoFJK:  IHMeth= 1 ICntrl=     0 DoSepK=T KAlg= 1 I1Cent= 0 FoldK=F
 LinEq1:  Iter=  4 NonCon=     1 RMS=7.15D-05 Max=5.26D-03
 FoFJK:  IHMeth= 1 ICntrl=     0 DoSepK=T KAlg= 1 I1Cent= 0 FoldK=F
 LinEq1:  Iter=  5 NonCon=     1 RMS=3.74D-05 Max=2.27D-03
 FoFJK:  IHMeth= 1 ICntrl=     0 DoSepK=T KAlg= 1 I1Cent= 0 FoldK=F
 LinEq1:  Iter=  6 NonCon=     1 RMS=2.36D-05 Max=1.66D-03
 FoFJK:  IHMeth= 1 ICntrl=     0 DoSepK=T KAlg= 1 I1Cent= 0 FoldK=F
 LinEq1:  Iter=  7 NonCon=     1 RMS=1.20D-05 Max=6.19D-04
 FoFJK:  IHMeth= 1 ICntrl=     0 DoSepK=T KAlg= 1 I1Cent= 0 FoldK=F
 LinEq1:  Iter=  8 NonCon=     1 RMS=7.03D-06 Max=4.31D-04
 FoFJK:  IHMeth= 1 ICntrl=     0 DoSepK=T KAlg= 1 I1Cent= 0 FoldK=F
 LinEq1:  Iter=  9 NonCon=     1 RMS=3.71D-06 Max=2.92D-04
 FoFJK:  IHMeth= 1 ICntrl=     0 DoSepK=T KAlg= 1 I1Cent= 0 FoldK=F
 LinEq1:  Iter= 10 NonCon=     1 RMS=1.98D-06 Max=1.39D-04
 FoFJK:  IHMeth= 1 ICntrl=     0 DoSepK=T KAlg= 1 I1Cent= 0 FoldK=F
 LinEq1:  Iter= 11 NonCon=     1 RMS=1.14D-06 Max=1.18D-04
 FoFJK:  IHMeth= 1 ICntrl=     0 DoSepK=T KAlg= 1 I1Cent= 0 FoldK=F
 LinEq1:  Iter= 12 NonCon=     1 RMS=6.33D-07 Max=3.78D-05
 FoFJK:  IHMeth= 1 ICntrl=     0 DoSepK=T KAlg= 1 I1Cent= 0 FoldK=F
 LinEq1:  Iter= 13 NonCon=     1 RMS=3.95D-07 Max=3.30D-05
 FoFJK:  IHMeth= 1 ICntrl=     0 DoSepK=T KAlg= 1 I1Cent= 0 FoldK=F
 LinEq1:  Iter= 14 NonCon=     1 RMS=2.10D-07 Max=9.89D-06
 FoFJK:  IHMeth= 1 ICntrl=     0 DoSepK=T KAlg= 1 I1Cent= 0 FoldK=F
 LinEq1:  Iter= 15 NonCon=     1 RMS=8.11D-08 Max=4.80D-06
 FoFJK:  IHMeth= 1 ICntrl=     0 DoSepK=T KAlg= 1 I1Cent= 0 FoldK=F
 LinEq1:  Iter= 16 NonCon=     1 RMS=4.82D-08 Max=2.13D-06
 FoFJK:  IHMeth= 1 ICntrl=     0 DoSepK=T KAlg= 1 I1Cent= 0 FoldK=F
 LinEq1:  Iter= 17 NonCon=     1 RMS=2.57D-08 Max=1.63D-06
 FoFJK:  IHMeth= 1 ICntrl=     0 DoSepK=T KAlg= 1 I1Cent= 0 FoldK=F
 LinEq1:  Iter= 18 NonCon=     1 RMS=1.84D-08 Max=8.80D-07
 FoFJK:  IHMeth= 1 ICntrl=     0 DoSepK=T KAlg= 1 I1Cent= 0 FoldK=F
 LinEq1:  Iter= 19 NonCon=     1 RMS=7.90D-09 Max=3.45D-07
 FoFJK:  IHMeth= 1 ICntrl=     0 DoSepK=T KAlg= 1 I1Cent= 0 FoldK=F
 LinEq1:  Iter= 20 NonCon=     1 RMS=5.10D-09 Max=2.75D-07
 FoFJK:  IHMeth= 1 ICntrl=     0 DoSepK=T KAlg= 1 I1Cent= 0 FoldK=F
 LinEq1:  Iter= 21 NonCon=     1 RMS=2.22D-09 Max=1.00D-07
 FoFJK:  IHMeth= 1 ICntrl=     0 DoSepK=T KAlg= 1 I1Cent= 0 FoldK=F
 LinEq1:  Iter= 22 NonCon=     1 RMS=1.35D-09 Max=7.58D-08
 FoFJK:  IHMeth= 1 ICntrl=     0 DoSepK=T KAlg= 1 I1Cent= 0 FoldK=F
 LinEq1:  Iter= 23 NonCon=     1 RMS=5.17D-10 Max=2.93D-08
 FoFJK:  IHMeth= 1 ICntrl=     0 DoSepK=T KAlg= 1 I1Cent= 0 FoldK=F
 LinEq1:  Iter= 24 NonCon=     1 RMS=3.48D-10 Max=1.93D-08
 FoFJK:  IHMeth= 1 ICntrl=     0 DoSepK=T KAlg= 1 I1Cent= 0 FoldK=F
 LinEq1:  Iter= 25 NonCon=     1 RMS=1.37D-10 Max=7.96D-09
 FoFJK:  IHMeth= 1 ICntrl=     0 DoSepK=T KAlg= 1 I1Cent= 0 FoldK=F
 LinEq1:  Iter= 26 NonCon=     1 RMS=6.87D-11 Max=3.71D-09
 FoFJK:  IHMeth= 1 ICntrl=     0 DoSepK=T KAlg= 1 I1Cent= 0 FoldK=F
 LinEq1:  Iter= 27 NonCon=     1 RMS=3.02D-11 Max=1.25D-09
 FoFJK:  IHMeth= 1 ICntrl=     0 DoSepK=T KAlg= 1 I1Cent= 0 FoldK=F
 LinEq1:  Iter= 28 NonCon=     0 RMS=1.28D-11 Max=4.71D-10
 Linear equations converged to 1.000D-10 1.000D-09 after    28 iterations.
 FoFJK:  IHMeth= 1 ICntrl=     0 DoSepK=T KAlg= 1 I1Cent= 0 FoldK=F
 End of Minotr Frequency-dependent properties file   721 does not exist.
 End of Minotr Frequency-dependent properties file   722 does not exist.

 **********************************************************************

            Population analysis using the SCF density.

 **********************************************************************

 Orbital symmetries:
       Occupied  (A) (A) (A) (A) (A) (A) (A) (A) (A) (A) (A) (A)
                 (A) (A) (A) (A) (A) (A) (A) (A) (A) (A) (A) (A)
                 (A) (A) (A) (A) (A) (A) (A) (A) (A) (A) (A) (A)
                 (A) (A) (A) (A) (A) (A) (A) (A) (A) (A) (A) (A)
                 (A) (A) (A) (A) (A) (A) (A) (A) (A) (A) (A) (A)
                 (A) (A) (A) (A) (A) (A) (A) (A) (A) (A) (A) (A)
                 (A) (A) (A) (A) (A) (A) (A) (A) (A) (A) (A) (A)
                 (A) (A) (A) (A) (A) (A) (A) (A) (A) (A) (A) (A)
                 (A) (A) (A) (A) (A) (A) (A) (A) (A) (A) (A) (A)
                 (A) (A) (A) (A) (A) (A) (A)
       Virtual   (A) (A) (A) (A) (A) (A) (A) (A) (A) (A) (A) (A)
                 (A) (A) (A) (A) (A) (A) (A) (A) (A) (A) (A) (A)
                 (A) (A) (A) (A) (A) (A) (A) (A) (A) (A) (A) (A)
                 (A) (A) (A) (A) (A) (A) (A) (A) (A) (A) (A) (A)
                 (A) (A) (A) (A) (A) (A) (A) (A) (A) (A) (A) (A)
                 (A) (A) (A) (A) (A) (A) (A) (A) (A) (A) (A) (A)
                 (A) (A) (A) (A) (A) (A) (A) (A) (A) (A) (A) (A)
                 (A) (A) (A) (A) (A) (A) (A) (A) (A) (A) (A) (A)
                 (A) (A) (A) (A) (A) (A) (A) (A) (A) (A) (A) (A)
                 (A) (A) (A) (A) (A) (A) (A) (A) (A) (A) (A) (A)
                 (A) (A) (A) (A) (A) (A) (A) (A) (A) (A) (A) (A)
                 (A) (A) (A) (A) (A) (A) (A) (A) (A) (A) (A) (A)
                 (A) (A) (A) (A) (A) (A) (A) (A) (A) (A) (A) (A)
                 (A) (A) (A) (A) (A) (A) (A) (A) (A) (A) (A) (A)
                 (A) (A) (A) (A) (A) (A) (A) (A) (A) (A) (A) (A)
                 (A) (A) (A) (A) (A) (A) (A) (A) (A) (A) (A) (A)
                 (A) (A) (A) (A) (A) (A) (A) (A) (A) (A) (A) (A)
                 (A) (A) (A) (A) (A) (A) (A) (A) (A) (A) (A) (A)
                 (A) (A) (A) (A) (A) (A) (A) (A) (A) (A) (A) (A)
                 (A) (A) (A) (A) (A) (A) (A) (A) (A) (A) (A) (A)
                 (A) (A) (A) (A) (A) (A) (A) (A) (A) (A) (A) (A)
                 (A) (A) (A) (A) (A) (A) (A) (A) (A) (A) (A) (A)
                 (A) (A) (A) (A) (A) (A) (A) (A) (A) (A) (A) (A)
                 (A) (A) (A) (A) (A) (A) (A) (A) (A) (A) (A) (A)
                 (A) (A) (A) (A) (A) (A) (A) (A) (A) (A) (A) (A)
                 (A) (A) (A) (A) (A) (A) (A) (A) (A) (A) (A) (A)
                 (A) (A) (A) (A) (A) (A) (A) (A) (A) (A) (A) (A)
                 (A) (A) (A) (A) (A) (A) (A) (A) (A) (A) (A) (A)
                 (A) (A) (A) (A) (A) (A) (A) (A) (A) (A) (A) (A)
                 (A) (A) (A) (A) (A) (A) (A) (A) (A) (A) (A) (A)
                 (A) (A) (A) (A) (A) (A) (A) (A) (A) (A) (A) (A)
                 (A) (A) (A) (A) (A) (A) (A) (A) (A) (A) (A) (A)
                 (A) (A) (A) (A) (A) (A) (A) (A) (A) (A) (A) (A)
                 (A) (A) (A) (A) (A) (A) (A) (A) (A) (A) (A) (A)
                 (A) (A) (A) (A) (A) (A) (A) (A) (A) (A) (A) (A)
                 (A) (A) (A) (A) (A) (A) (A) (A) (A) (A) (A) (A)
                 (A) (A) (A) (A) (A) (A) (A) (A) (A) (A) (A) (A)
                 (A) (A) (A) (A) (A) (A) (A) (A) (A) (A) (A) (A)
                 (A) (A) (A) (A) (A) (A) (A) (A) (A) (A) (A) (A)
                 (A) (A) (A) (A) (A) (A) (A) (A) (A) (A) (A) (A)
                 (A) (A) (A) (A) (A) (A) (A) (A) (A) (A) (A) (A)
                 (A) (A) (A) (A) (A) (A) (A) (A) (A) (A) (A) (A)
                 (A) (A) (A) (A) (A) (A) (A) (A) (A) (A) (A) (A)
                 (A) (A) (A) (A) (A) (A) (A) (A) (A) (A) (A) (A)
                 (A) (A) (A) (A) (A) (A) (A) (A) (A) (A) (A) (A)
                 (A) (A) (A) (A) (A) (A) (A) (A) (A) (A) (A) (A)
                 (A) (A) (A) (A) (A) (A) (A) (A) (A) (A) (A) (A)
                 (A) (A) (A) (A) (A) (A) (A) (A) (A) (A) (A) (A)
                 (A) (A) (A) (A) (A) (A) (A) (A) (A) (A) (A) (A)
                 (A) (A) (A) (A) (A) (A) (A) (A) (A) (A) (A) (A)
                 (A) (A) (A) (A) (A) (A) (A) (A) (A) (A) (A) (A)
                 (A) (A) (A) (A) (A) (A) (A) (A) (A) (A) (A) (A)
 The electronic state is 1-A.
 Alpha  occ. eigenvalues --  -19.26990 -19.26976 -19.20596 -19.20587 -14.45940
 Alpha  occ. eigenvalues --  -14.45938 -10.38014 -10.37991 -10.34570 -10.34531
 Alpha  occ. eigenvalues --  -10.34409 -10.34351 -10.32969 -10.32850 -10.29308
 Alpha  occ. eigenvalues --  -10.29152 -10.29128 -10.29101 -10.28210 -10.28030
 Alpha  occ. eigenvalues --  -10.27790 -10.27764 -10.27735 -10.27247 -10.27085
 Alpha  occ. eigenvalues --  -10.27036 -10.26526 -10.26464 -10.26279 -10.26268
 Alpha  occ. eigenvalues --  -10.25483 -10.25462  -1.16267  -1.16256  -1.13046
 Alpha  occ. eigenvalues --   -1.12471  -1.05852  -1.04555  -0.95611  -0.95573
 Alpha  occ. eigenvalues --   -0.89705  -0.89659  -0.89048  -0.86660  -0.85975
 Alpha  occ. eigenvalues --   -0.84782  -0.84648  -0.82425  -0.81879  -0.78907
 Alpha  occ. eigenvalues --   -0.76000  -0.75595  -0.73620  -0.73187  -0.70412
 Alpha  occ. eigenvalues --   -0.70041  -0.68893  -0.68214  -0.66275  -0.66100
 Alpha  occ. eigenvalues --   -0.64343  -0.62973  -0.62668  -0.61096  -0.60493
 Alpha  occ. eigenvalues --   -0.59178  -0.57035  -0.56250  -0.56115  -0.55429
 Alpha  occ. eigenvalues --   -0.54613  -0.53922  -0.53435  -0.53164  -0.52991
 Alpha  occ. eigenvalues --   -0.52738  -0.51958  -0.51629  -0.50960  -0.50433
 Alpha  occ. eigenvalues --   -0.50099  -0.49919  -0.49755  -0.49507  -0.47980
 Alpha  occ. eigenvalues --   -0.47923  -0.46956  -0.46736  -0.46148  -0.45908
 Alpha  occ. eigenvalues --   -0.45192  -0.44787  -0.44560  -0.44402  -0.43958
 Alpha  occ. eigenvalues --   -0.43038  -0.42236  -0.41466  -0.41409  -0.40729
 Alpha  occ. eigenvalues --   -0.40602  -0.39957  -0.39933  -0.39323  -0.39301
 Alpha  occ. eigenvalues --   -0.38422  -0.38170  -0.34277  -0.32902  -0.32542
 Alpha  occ. eigenvalues --   -0.32494  -0.32035  -0.30351  -0.29573  -0.23556
 Alpha virt. eigenvalues --   -0.05807   0.00622   0.02066   0.02184   0.02255
 Alpha virt. eigenvalues --    0.02785   0.03408   0.03658   0.04319   0.04441
 Alpha virt. eigenvalues --    0.04646   0.04982   0.05017   0.05280   0.05502
 Alpha virt. eigenvalues --    0.05879   0.06413   0.06799   0.07072   0.07310
 Alpha virt. eigenvalues --    0.07410   0.07569   0.07901   0.08277   0.08445
 Alpha virt. eigenvalues --    0.08819   0.08981   0.09325   0.09578   0.09796
 Alpha virt. eigenvalues --    0.09846   0.10002   0.10223   0.10639   0.11050
 Alpha virt. eigenvalues --    0.11198   0.11554   0.11735   0.11976   0.12510
 Alpha virt. eigenvalues --    0.12572   0.12789   0.12990   0.13545   0.13773
 Alpha virt. eigenvalues --    0.14406   0.14648   0.14818   0.15169   0.15243
 Alpha virt. eigenvalues --    0.15333   0.15855   0.16162   0.16212   0.16582
 Alpha virt. eigenvalues --    0.16939   0.16983   0.17193   0.17488   0.17750
 Alpha virt. eigenvalues --    0.17981   0.18318   0.18560   0.18736   0.19030
 Alpha virt. eigenvalues --    0.19068   0.19200   0.19551   0.19883   0.19993
 Alpha virt. eigenvalues --    0.20273   0.20873   0.21009   0.21444   0.21645
 Alpha virt. eigenvalues --    0.21837   0.21932   0.22034   0.22571   0.23006
 Alpha virt. eigenvalues --    0.23139   0.23295   0.23512   0.23553   0.24249
 Alpha virt. eigenvalues --    0.24293   0.24592   0.24790   0.25032   0.25172
 Alpha virt. eigenvalues --    0.25296   0.25796   0.25926   0.26116   0.26197
 Alpha virt. eigenvalues --    0.26752   0.26954   0.27073   0.27104   0.27224
 Alpha virt. eigenvalues --    0.27547   0.27821   0.27964   0.28188   0.28368
 Alpha virt. eigenvalues --    0.28641   0.28671   0.28975   0.29147   0.29251
 Alpha virt. eigenvalues --    0.29512   0.29568   0.29906   0.30030   0.30197
 Alpha virt. eigenvalues --    0.30476   0.30672   0.30829   0.31323   0.31388
 Alpha virt. eigenvalues --    0.31966   0.32159   0.32281   0.32522   0.32666
 Alpha virt. eigenvalues --    0.33086   0.33367   0.33602   0.33759   0.34170
 Alpha virt. eigenvalues --    0.34309   0.34607   0.34863   0.35120   0.35254
 Alpha virt. eigenvalues --    0.35936   0.36030   0.36291   0.36639   0.36841
 Alpha virt. eigenvalues --    0.36969   0.37482   0.37748   0.37931   0.38041
 Alpha virt. eigenvalues --    0.38227   0.38260   0.38715   0.39037   0.39443
 Alpha virt. eigenvalues --    0.39586   0.39810   0.40362   0.40706   0.40949
 Alpha virt. eigenvalues --    0.41098   0.41602   0.41829   0.41901   0.42526
 Alpha virt. eigenvalues --    0.42975   0.43378   0.43612   0.44006   0.44237
 Alpha virt. eigenvalues --    0.44756   0.45014   0.45496   0.45838   0.45998
 Alpha virt. eigenvalues --    0.46255   0.46799   0.48203   0.49055   0.50503
 Alpha virt. eigenvalues --    0.50779   0.51117   0.53345   0.54243   0.54409
 Alpha virt. eigenvalues --    0.55151   0.56282   0.56682   0.57893   0.58911
 Alpha virt. eigenvalues --    0.62575   0.63352   0.65610   0.66877   0.68261
 Alpha virt. eigenvalues --    0.68680   0.69104   0.69715   0.70547   0.70683
 Alpha virt. eigenvalues --    0.70974   0.71321   0.71414   0.71686   0.72421
 Alpha virt. eigenvalues --    0.73656   0.73724   0.73812   0.74444   0.74870
 Alpha virt. eigenvalues --    0.75181   0.75551   0.75882   0.76321   0.76660
 Alpha virt. eigenvalues --    0.76847   0.77232   0.77531   0.77765   0.77923
 Alpha virt. eigenvalues --    0.78289   0.78445   0.79418   0.79549   0.79770
 Alpha virt. eigenvalues --    0.80566   0.81298   0.81612   0.82183   0.82458
 Alpha virt. eigenvalues --    0.83975   0.84230   0.84335   0.84826   0.85758
 Alpha virt. eigenvalues --    0.86622   0.86790   0.87503   0.87874   0.88487
 Alpha virt. eigenvalues --    0.89204   0.89604   0.89800   0.90030   0.90673
 Alpha virt. eigenvalues --    0.91876   0.92263   0.93315   0.94201   0.94331
 Alpha virt. eigenvalues --    0.94744   0.95755   0.95956   0.99241   0.99569
 Alpha virt. eigenvalues --    1.00006   1.00222   1.00893   1.01125   1.01568
 Alpha virt. eigenvalues --    1.02596   1.02793   1.02934   1.02951   1.03243
 Alpha virt. eigenvalues --    1.04224   1.04887   1.04960   1.05069   1.05274
 Alpha virt. eigenvalues --    1.05532   1.05747   1.06064   1.06571   1.09285
 Alpha virt. eigenvalues --    1.10328   1.11030   1.12303   1.12700   1.12948
 Alpha virt. eigenvalues --    1.13822   1.14342   1.14830   1.15430   1.15775
 Alpha virt. eigenvalues --    1.16372   1.16617   1.17304   1.17737   1.17754
 Alpha virt. eigenvalues --    1.18234   1.19123   1.19519   1.19858   1.20979
 Alpha virt. eigenvalues --    1.21222   1.22005   1.23104   1.23412   1.25013
 Alpha virt. eigenvalues --    1.25868   1.26020   1.27584   1.28016   1.28330
 Alpha virt. eigenvalues --    1.29056   1.29273   1.29684   1.30430   1.30689
 Alpha virt. eigenvalues --    1.31555   1.31763   1.31974   1.32893   1.33234
 Alpha virt. eigenvalues --    1.33354   1.34118   1.34407   1.34686   1.35787
 Alpha virt. eigenvalues --    1.36040   1.36297   1.37296   1.37365   1.37779
 Alpha virt. eigenvalues --    1.37940   1.38863   1.39830   1.41617   1.41937
 Alpha virt. eigenvalues --    1.42798   1.43029   1.43393   1.43720   1.44513
 Alpha virt. eigenvalues --    1.45575   1.45615   1.45757   1.46103   1.46278
 Alpha virt. eigenvalues --    1.46612   1.47147   1.47264   1.47790   1.48681
 Alpha virt. eigenvalues --    1.49063   1.49481   1.49590   1.50669   1.51048
 Alpha virt. eigenvalues --    1.52381   1.52825   1.53538   1.54251   1.56545
 Alpha virt. eigenvalues --    1.56869   1.57410   1.57790   1.60506   1.63599
 Alpha virt. eigenvalues --    1.64224   1.64812   1.65529   1.68221   1.69490
 Alpha virt. eigenvalues --    1.69982   1.70693   1.71303   1.73438   1.73633
 Alpha virt. eigenvalues --    1.73889   1.75648   1.75663   1.80875   1.81514
 Alpha virt. eigenvalues --    1.81857   1.82475   1.82811   1.84175   1.84947
 Alpha virt. eigenvalues --    1.85259   1.85419   1.86987   1.88546   1.90321
 Alpha virt. eigenvalues --    1.90606   1.90802   1.91915   1.92007   1.92468
 Alpha virt. eigenvalues --    1.93443   1.93885   1.94839   1.95350   1.95948
 Alpha virt. eigenvalues --    1.96740   1.97089   1.97326   1.98708   1.99006
 Alpha virt. eigenvalues --    1.99119   1.99865   2.00139   2.00316   2.00859
 Alpha virt. eigenvalues --    2.01225   2.01662   2.03064   2.03387   2.03731
 Alpha virt. eigenvalues --    2.04403   2.05097   2.05139   2.05575   2.06026
 Alpha virt. eigenvalues --    2.07477   2.08173   2.08568   2.08860   2.09055
 Alpha virt. eigenvalues --    2.09848   2.11208   2.11602   2.12066   2.12136
 Alpha virt. eigenvalues --    2.13278   2.14565   2.14639   2.15237   2.15497
 Alpha virt. eigenvalues --    2.15794   2.16873   2.17046   2.17239   2.17260
 Alpha virt. eigenvalues --    2.17589   2.18961   2.19722   2.20440   2.20942
 Alpha virt. eigenvalues --    2.21001   2.22010   2.22601   2.22703   2.23090
 Alpha virt. eigenvalues --    2.23327   2.23699   2.25138   2.25940   2.27136
 Alpha virt. eigenvalues --    2.31825   2.32120   2.32520   2.32877   2.33250
 Alpha virt. eigenvalues --    2.33725   2.33957   2.33974   2.35732   2.35909
 Alpha virt. eigenvalues --    2.36401   2.36495   2.37389   2.37909   2.38094
 Alpha virt. eigenvalues --    2.38760   2.39859   2.41480   2.41694   2.43057
 Alpha virt. eigenvalues --    2.44544   2.45262   2.45437   2.47538   2.47675
 Alpha virt. eigenvalues --    2.48205   2.48592   2.49723   2.51812   2.52891
 Alpha virt. eigenvalues --    2.52976   2.54729   2.55061   2.55221   2.56967
 Alpha virt. eigenvalues --    2.57141   2.57522   2.57957   2.59422   2.59666
 Alpha virt. eigenvalues --    2.59985   2.60956   2.61319   2.61708   2.62102
 Alpha virt. eigenvalues --    2.62184   2.63058   2.63479   2.64778   2.65837
 Alpha virt. eigenvalues --    2.65966   2.66271   2.66574   2.66922   2.69379
 Alpha virt. eigenvalues --    2.70415   2.71383   2.72177   2.73136   2.74784
 Alpha virt. eigenvalues --    2.75638   2.76030   2.76702   2.76787   2.78250
 Alpha virt. eigenvalues --    2.78515   2.79353   2.79674   2.81362   2.81600
 Alpha virt. eigenvalues --    2.81913   2.82786   2.82892   2.83424   2.84450
 Alpha virt. eigenvalues --    2.84509   2.85233   2.87015   2.87372   2.88119
 Alpha virt. eigenvalues --    2.88469   2.88725   2.88890   2.89383   2.91180
 Alpha virt. eigenvalues --    2.91873   2.91927   2.93829   2.95713   2.96103
 Alpha virt. eigenvalues --    2.97186   2.98230   2.98465   2.98606   3.00555
 Alpha virt. eigenvalues --    3.01591   3.02275   3.03043   3.04787   3.05823
 Alpha virt. eigenvalues --    3.07207   3.09371   3.12562   3.13473   3.14268
 Alpha virt. eigenvalues --    3.16798   3.17113   3.17984   3.19973   3.22137
 Alpha virt. eigenvalues --    3.25607   3.27567   3.29004   3.31329   3.31364
 Alpha virt. eigenvalues --    3.34589   3.35273   3.37107   3.37788   3.38068
 Alpha virt. eigenvalues --    3.38730   3.39466   3.39859   3.41939   3.43432
 Alpha virt. eigenvalues --    3.44595   3.44908   3.46469   3.46527   3.46698
 Alpha virt. eigenvalues --    3.47324   3.50206   3.53380   3.53491   3.56608
 Alpha virt. eigenvalues --    3.56635   3.57488   3.60644   3.60719   3.62300
 Alpha virt. eigenvalues --    3.62784   3.65008   3.65668   3.65726   3.66032
 Alpha virt. eigenvalues --    3.90583   3.90895   4.32085   4.37714   4.38493
 Alpha virt. eigenvalues --    4.39149   4.39755   4.41801   4.42070   4.42604
 Alpha virt. eigenvalues --    4.46619   4.47405   4.47723   4.49132   4.50556
 Alpha virt. eigenvalues --    4.53628   4.54404   4.57377   4.57793   4.59159
 Alpha virt. eigenvalues --    4.59824   4.62763   4.65723   4.69408   4.71830
 Alpha virt. eigenvalues --    4.72785   4.78077   4.81173   4.81299   4.85759
 Alpha virt. eigenvalues --    4.96740   4.98305   5.11739   5.20519
          Condensed to atoms (all electrons):
 Mulliken atomic charges:
              1
     1  N   -0.404528
     2  C    0.645692
     3  C    0.344018
     4  C   -0.448356
     5  C   -0.351623
     6  C    0.536439
     7  C    0.570341
     8  N   -0.418946
     9  O   -0.566358
    10  O   -0.551654
    11  H    0.297030
    12  H    0.295080
    13  C   -0.199191
    14  C    0.053772
    15  C   -0.511346
    16  H    0.186219
    17  C    0.267204
    18  C   -0.090168
    19  H    0.108336
    20  C   -0.126942
    21  H    0.144866
    22  H    0.136128
    23  O   -0.359971
    24  C    0.360858
    25  H    0.141093
    26  H    0.143097
    27  C   -0.759625
    28  H    0.145640
    29  H    0.159251
    30  C    0.001105
    31  H    0.163975
    32  H    0.138674
    33  C   -0.655974
    34  H    0.146231
    35  H    0.150514
    36  H    0.149693
    37  C   -0.450245
    38  C   -0.035012
    39  C    0.092546
    40  H    0.106053
    41  C    0.736770
    42  C   -0.383551
    43  H    0.185982
    44  C   -0.267659
    45  H    0.149327
    46  H    0.128828
    47  O   -0.353075
    48  C    0.340745
    49  H    0.138306
    50  H    0.139851
    51  C   -0.769942
    52  H    0.144347
    53  H    0.159765
    54  C    0.000871
    55  H    0.166137
    56  H    0.137593
    57  C   -0.654958
    58  H    0.145588
    59  H    0.150950
    60  H    0.150212
 Sum of Mulliken atomic charges =   0.00000
 Mulliken charges with hydrogens summed into heavy atoms:
              1
     1  N   -0.109448
     2  C    0.645692
     3  C    0.344018
     4  C   -0.448356
     5  C   -0.351623
     6  C    0.536439
     7  C    0.570341
     8  N   -0.121917
     9  O   -0.566358
    10  O   -0.551654
    13  C   -0.199191
    14  C    0.189900
    15  C   -0.325128
    17  C    0.267204
    18  C    0.018168
    20  C    0.017924
    23  O   -0.359971
    24  C    0.645049
    27  C   -0.454733
    30  C    0.303753
    33  C   -0.209537
    37  C   -0.450245
    38  C    0.093816
    39  C    0.198599
    41  C    0.736770
    42  C   -0.197569
    44  C   -0.118332
    47  O   -0.353075
    48  C    0.618902
    51  C   -0.465830
    54  C    0.304601
    57  C   -0.208209
 Sum of Mulliken charges with hydrogens summed into heavy atoms =   0.00000
 Electronic spatial extent (au):  <R**2>=          34419.2949
 Charge=              0.0000 electrons
 Dipole moment (field-independent basis, Debye):
    X=             -0.1580    Y=             -2.3099    Z=              0.0995  Tot=              2.3174
 Quadrupole moment (field-independent basis, Debye-Ang):
   XX=           -125.5862   YY=           -191.6567   ZZ=           -196.6559
   XY=             16.7684   XZ=              1.0790   YZ=              0.7388
 Traceless Quadrupole moment (field-independent basis, Debye-Ang):
   XX=             45.7134   YY=            -20.3571   ZZ=            -25.3563
   XY=             16.7684   XZ=              1.0790   YZ=              0.7388
 Octapole moment (field-independent basis, Debye-Ang**2):
  XXX=            -45.6569  YYY=             -1.2581  ZZZ=              0.2239  XYY=              3.4145
  XXY=           -155.4279  XXZ=              4.3235  XZZ=              0.6707  YZZ=             -0.9549
  YYZ=              0.3273  XYZ=             -8.6865
 Hexadecapole moment (field-independent basis, Debye-Ang**3):
 XXXX=         -40170.3999 YYYY=          -2116.8036 ZZZZ=           -441.7221 XXXY=              6.1137
 XXXZ=             94.1277 YYYX=            204.2771 YYYZ=              8.8588 ZZZX=              4.7769
 ZZZY=             -3.7665 XXYY=          -7478.7485 XXZZ=          -7665.2206 YYZZ=           -430.3273
 XXYZ=            -10.4242 YYXZ=             15.1933 ZZXY=            -21.9886
 N-N= 2.817862121734D+03 E-N=-8.929132189801D+03  KE= 1.404204638091D+03
 1|1|UNPC-DESKTOP-1G0HI64|SP|RCAM-B3LYP TD-FC|6-31+G(d,p)|C26H28N2O4|US
 ER|21-Jul-2023|0||# td=(nstates=10) cam-b3lyp/6-31+g(d,p) geom=connect
 ivity polar||Energy:||0,1|N,0,-0.985394,-1.777339,0.005568|C,0,0.42620
 3,-1.671629,0.07354|C,0,-1.632496,-0.546386,-0.07092|C,0,-0.63064,0.41
 4593,-0.054737|C,0,0.647496,-0.234604,0.03364|C,0,1.649956,0.726203,0.
 052252|C,0,-0.407983,1.852657,-0.09348|N,0,1.004534,1.957204,-0.023566
 |O,0,1.173883,-2.646133,0.145776|O,0,-1.153788,2.827289,-0.166404|H,0,
 1.451966,2.860871,-0.034607|H,0,-1.431751,-2.68142,0.015181|C,0,5.9004
 34,0.312803,0.290053|C,0,5.072152,-0.820572,0.282743|C,0,3.689738,-0.6
 73005,0.20469|H,0,3.060492,-1.558841,0.199874|C,0,3.09409,0.602525,0.1
 32156|C,0,3.945378,1.731277,0.141297|H,0,3.538239,2.736442,0.088651|C,
 0,5.321333,1.592564,0.21864|H,0,5.972696,2.460131,0.226462|H,0,5.48907
 8,-1.818671,0.337316|O,0,7.25627,0.280234,0.363907|C,0,7.925797,-0.987
 06,0.447094|H,0,7.671564,-1.591365,-0.435037|H,0,7.58242,-1.519692,1.3
 43714|C,0,9.424731,-0.730302,0.512998|H,0,9.913626,-1.695698,0.703562|
 H,0,9.634677,-0.095387,1.383619|C,0,10.01135,-0.094745,-0.754563|H,0,9
 .503944,0.85735,-0.947184|H,0,9.793049,-0.742403,-1.615232|C,0,11.5235
 41,0.135153,-0.656854|H,0,12.060992,-0.806687,-0.493412|H,0,11.91651,0
 .587254,-1.573595|H,0,11.768944,0.805353,0.175431|C,0,-5.885521,-0.149
 223,-0.298735|C,0,-5.30767,-1.426011,-0.222361|C,0,-3.921471,-1.550691
 ,-0.148363|H,0,-3.510675,-2.554162,-0.090542|C,0,-3.077314,-0.425169,-
 0.147969|C,0,-3.679542,0.854481,-0.226314|H,0,-3.053221,1.742214,-0.22
 775|C,0,-5.055502,0.986378,-0.300461|H,0,-5.516732,1.966638,-0.361031|
 H,0,-5.919372,-2.319593,-0.220062|O,0,-7.220746,0.089228,-0.374927|C,0
 ,-8.135613,-1.015621,-0.371972|H,0,-7.997083,-1.600275,0.54872|H,0,-7.
 923117,-1.665414,-1.231582|C,0,-9.551838,-0.463127,-0.452484|H,0,-10.2
 30777,-1.31957,-0.566264|H,0,-9.644589,0.134662,-1.368503|C,0,-9.97177
 1,0.372252,0.764392|H,0,-9.281406,1.215792,0.876175|H,0,-9.866618,-0.2
 37565,1.672726|C,0,-11.410289,0.89055,0.659051|H,0,-12.127261,0.06489,
 0.575627|H,0,-11.684671,1.481335,1.539313|H,0,-11.537148,1.530074,-0.2
 22388||Version=IA32W-G09RevB.01|State=1-A|HF=-1417.4166064|RMSD=7.938e
 -009|Dipole=0.,0.,0.|PG=C01 [X(C26H28N2O4)]||@


 IN THE LONG RUN, DIGGING FOR TRUTH HAS ALWAYS PROVED NOT ONLY 
 MORE INTERESTING BUT MORE PROFITABLE THAN DIGGING FOR GOLD.

                             -- GEORGE R. HARRISON
 Job cpu time:  0 days  3 hours 33 minutes 57.0 seconds.
 File lengths (MBytes):  RWF=   1379 Int=      0 D2E=      0 Chk=    206 Scr=      1
 Normal termination of Gaussian 09 at Fri Jul 21 23:01:08 2023.
