 Entering Link 1 = C:\G09W\l1.exe PID=     12400.
  
 Copyright (c) 1988,1990,1992,1993,1995,1998,2003,2009,2010,
            Gaussian, Inc.  All Rights Reserved.
  
 This is part of the Gaussian(R) 09 program.  It is based on
 the Gaussian(R) 03 system (copyright 2003, Gaussian, Inc.),
 the Gaussian(R) 98 system (copyright 1998, Gaussian, Inc.),
 the Gaussian(R) 94 system (copyright 1995, Gaussian, Inc.),
 the Gaussian 92(TM) system (copyright 1992, Gaussian, Inc.),
 the Gaussian 90(TM) system (copyright 1990, Gaussian, Inc.),
 the Gaussian 88(TM) system (copyright 1988, Gaussian, Inc.),
 the Gaussian 86(TM) system (copyright 1986, Carnegie Mellon
 University), and the Gaussian 82(TM) system (copyright 1983,
 Carnegie Mellon University). Gaussian is a federally registered
 trademark of Gaussian, Inc.
  
 This software contains proprietary and confidential information,
 including trade secrets, belonging to Gaussian, Inc.
  
 This software is provided under written license and may be
 used, copied, transmitted, or stored only in accord with that
 written license.
  
 The following legend is applicable only to US Government
 contracts under FAR:
  
                    RESTRICTED RIGHTS LEGEND
  
 Use, reproduction and disclosure by the US Government is
 subject to restrictions as set forth in subparagraphs (a)
 and (c) of the Commercial Computer Software - Restricted
 Rights clause in FAR 52.227-19.
  
 Gaussian, Inc.
 340 Quinnipiac St., Bldg. 40, Wallingford CT 06492
  
  
 ---------------------------------------------------------------
 Warning -- This program may not be used in any manner that
 competes with the business of Gaussian, Inc. or will provide
 assistance to any competitor of Gaussian, Inc.  The licensee
 of this program is prohibited from giving any competitor of
 Gaussian, Inc. access to this program.  By using this program,
 the user acknowledges that Gaussian, Inc. is engaged in the
 business of creating and licensing software in the field of
 computational chemistry and represents and warrants to the
 licensee that it is not a competitor of Gaussian, Inc. and that
 it will not use this program in any manner prohibited above.
 ---------------------------------------------------------------
  

 Cite this work as:
 Gaussian 09, Revision B.01,
 M. J. Frisch, G. W. Trucks, H. B. Schlegel, G. E. Scuseria, 
 M. A. Robb, J. R. Cheeseman, G. Scalmani, V. Barone, B. Mennucci, 
 G. A. Petersson, H. Nakatsuji, M. Caricato, X. Li, H. P. Hratchian, 
 A. F. Izmaylov, J. Bloino, G. Zheng, J. L. Sonnenberg, M. Hada, 
 M. Ehara, K. Toyota, R. Fukuda, J. Hasegawa, M. Ishida, T. Nakajima, 
 Y. Honda, O. Kitao, H. Nakai, T. Vreven, J. A. Montgomery, Jr., 
 J. E. Peralta, F. Ogliaro, M. Bearpark, J. J. Heyd, E. Brothers, 
 K. N. Kudin, V. N. Staroverov, T. Keith, R. Kobayashi, J. Normand, 
 K. Raghavachari, A. Rendell, J. C. Burant, S. S. Iyengar, J. Tomasi, 
 M. Cossi, N. Rega, J. M. Millam, M. Klene, J. E. Knox, J. B. Cross, 
 V. Bakken, C. Adamo, J. Jaramillo, R. Gomperts, R. E. Stratmann, 
 O. Yazyev, A. J. Austin, R. Cammi, C. Pomelli, J. W. Ochterski, 
 R. L. Martin, K. Morokuma, V. G. Zakrzewski, G. A. Voth, 
 P. Salvador, J. J. Dannenberg, S. Dapprich, A. D. Daniels, 
 O. Farkas, J. B. Foresman, J. V. Ortiz, J. Cioslowski, 
 and D. J. Fox, Gaussian, Inc., Wallingford CT, 2010.
 
 ******************************************
 Gaussian 09:  IA32W-G09RevB.01 12-Aug-2010
                19-Jul-2023 
 ******************************************
 %nprocshared=6
 Will use up to    6 processors via shared memory.
 %chk=G:\Meu Drive\POS-DOC-IME\SUBSTITUINTES-DOADORES\DPP-substituido\DPP-SUB-3-O
 PT-FREQ.chk
 ----------------------------------------------------
 # opt freq b3lyp/6-31+g(d,p) geom=connectivity polar
 ----------------------------------------------------
 1/14=-1,18=20,19=15,26=3,38=1,57=2/1,3;
 2/9=110,12=2,17=6,18=5,40=1/2;
 3/5=1,6=6,7=111,11=2,16=1,25=1,30=1,71=1,74=-5/1,2,3;
 4//1;
 5/5=2,38=5,98=1/2;
 6/7=2,8=2,9=2,10=2,28=1/1;
 7//1,2,3,16;
 1/14=-1,18=20,19=15/3(2);
 2/9=110/2;
 99//99;
 2/9=110/2;
 3/5=1,6=6,7=111,11=2,16=1,25=1,30=1,71=1,74=-5/1,2,3;
 4/5=5,16=3/1;
 5/5=2,38=5,98=1/2;
 7//1,2,3,16;
 1/14=-1,18=20,19=15/3(-5);
 2/9=110/2;
 6/7=2,8=2,9=2,10=2,19=2,28=1/1;
 99/9=1/99;
 -------
 Energy:
 -------
 Symbolic Z-matrix:
 Charge =  0 Multiplicity = 1
 N                     1.89439  -0.95344  -0.24583 
 C                     1.67061   0.51821  -0.22349 
 C                     0.66954  -1.58676  -0.15696 
 C                    -0.30402  -0.63646  -0.08144 
 C                     0.1683    0.61551  -0.11618 
 C                    -0.82139   1.55972  -0.04787 
 C                    -1.80275  -0.55127   0.03097 
 N                    -2.03411   0.91109   0.05166 
 O                     2.51947   1.44594  -0.28158 
 O                    -2.64485  -1.48266   0.09312 
 H                    -2.92606   1.35722   0.12343 
 H                     2.78462  -1.40562  -0.31316 
 C                    -0.36106   5.87444  -0.15476 
 C                     0.77435   5.05395  -0.21615 
 C                     0.63372   3.65801  -0.17987 
 H                     1.49795   3.02919  -0.23141 
 C                    -0.6418    3.08876  -0.07955 
 C                    -1.77383   3.91099  -0.00922 
 H                    -2.74625   3.46945   0.07279 
 C                    -1.63493   5.30266  -0.05047 
 H                    -2.50122   5.92973  -0.00439 
 H                     1.74944   5.49171  -0.29186 
 O                    -0.22648   7.29639  -0.20267 
 C                     1.03321   7.67869   0.3476 
 H                     1.82193   7.25024  -0.23347 
 H                     1.10363   7.32956   1.35709 
 C                     1.15091   9.2108    0.32681 
 H                     2.09801   9.50101   0.73235 
 H                     0.36554   9.6366    0.91533 
 C                     1.03473   9.71365  -1.12162 
 H                     0.08938   9.41572  -1.5279 
 H                     1.8227    9.29498  -1.71064 
 C                     1.14296   11.24818  -1.13533 
 H                     2.08817   11.54303  -0.72637 
 H                     1.06377   11.60233  -2.14203 
 H                     0.35315   11.66679  -0.54595 
 C                    -0.19468  -5.8488   -0.13561 
 C                     1.14351  -5.41878  -0.22111 
 C                     1.43726  -4.04146  -0.22258 
 H                     2.45041  -3.70702  -0.28363 
 C                     0.39522  -3.10479  -0.14491 
 C                    -0.93075  -3.54008  -0.05882 
 H                    -1.72175  -2.81999   0.00152 
 C                    -1.22587  -4.90577  -0.05194 
 H                    -2.2453   -5.23295   0.01823 
 H                     1.9351   -6.13546  -0.28486 
 O                    -0.53472  -7.24049  -0.13071 
 C                     0.39739  -8.00642  -0.89717 
 H                     1.36603  -7.94886  -0.44795 
 H                     0.44235  -7.61901  -1.8935 
 C                    -0.06991  -9.47404  -0.9414 
 H                     0.63083  -10.05435  -1.50599 
 H                    -1.03196  -9.52507  -1.4061 
 C                    -0.16604  -10.03267   0.48926 
 H                    -0.86311  -9.44763   1.05299 
 H                     0.79486  -9.99066   0.95606 
 C                    -0.64714  -11.4935   0.43295 
 H                     0.04881  -12.07585  -0.13572 
 H                    -0.71376  -11.88462   1.4266 
 H                    -1.61143  -11.53496  -0.03288 
 

 GradGradGradGradGradGradGradGradGradGradGradGradGradGradGradGradGradGrad
 Berny optimization.
 Initialization pass.
                           ----------------------------
                           !    Initial Parameters    !
                           ! (Angstroms and Degrees)  !
 --------------------------                            --------------------------
 ! Name  Definition              Value          Derivative Info.                !
 --------------------------------------------------------------------------------
 ! R1    R(1,2)                  1.4887         estimate D2E/DX2                !
 ! R2    R(1,3)                  1.3818         estimate D2E/DX2                !
 ! R3    R(1,12)                 1.0008         estimate D2E/DX2                !
 ! R4    R(2,5)                  1.5093         estimate D2E/DX2                !
 ! R5    R(2,9)                  1.2588         estimate D2E/DX2                !
 ! R6    R(3,4)                  1.3626         estimate D2E/DX2                !
 ! R7    R(3,41)                 1.5427         estimate D2E/DX2                !
 ! R8    R(4,5)                  1.3386         estimate D2E/DX2                !
 ! R9    R(4,7)                  1.5054         estimate D2E/DX2                !
 ! R10   R(5,6)                  1.3696         estimate D2E/DX2                !
 ! R11   R(6,8)                  1.3789         estimate D2E/DX2                !
 ! R12   R(6,17)                 1.5399         estimate D2E/DX2                !
 ! R13   R(7,8)                  1.4807         estimate D2E/DX2                !
 ! R14   R(7,10)                 1.2572         estimate D2E/DX2                !
 ! R15   R(8,11)                 0.9999         estimate D2E/DX2                !
 ! R16   R(9,16)                 1.8849         estimate D2E/DX2                !
 ! R17   R(10,43)                1.6276         estimate D2E/DX2                !
 ! R18   R(13,14)                1.4022         estimate D2E/DX2                !
 ! R19   R(13,20)                1.4002         estimate D2E/DX2                !
 ! R20   R(13,23)                1.4291         estimate D2E/DX2                !
 ! R21   R(14,15)                1.4035         estimate D2E/DX2                !
 ! R22   R(14,22)                1.0715         estimate D2E/DX2                !
 ! R23   R(15,16)                1.07           estimate D2E/DX2                !
 ! R24   R(15,17)                1.4004         estimate D2E/DX2                !
 ! R25   R(17,18)                1.4009         estimate D2E/DX2                !
 ! R26   R(18,19)                1.0711         estimate D2E/DX2                !
 ! R27   R(18,20)                1.3992         estimate D2E/DX2                !
 ! R28   R(20,21)                1.0704         estimate D2E/DX2                !
 ! R29   R(23,24)                1.4268         estimate D2E/DX2                !
 ! R30   R(24,25)                1.0692         estimate D2E/DX2                !
 ! R31   R(24,26)                1.0705         estimate D2E/DX2                !
 ! R32   R(24,27)                1.5368         estimate D2E/DX2                !
 ! R33   R(27,28)                1.0704         estimate D2E/DX2                !
 ! R34   R(27,29)                1.0698         estimate D2E/DX2                !
 ! R35   R(27,30)                1.5376         estimate D2E/DX2                !
 ! R36   R(30,31)                1.0712         estimate D2E/DX2                !
 ! R37   R(30,32)                1.0692         estimate D2E/DX2                !
 ! R38   R(30,33)                1.5384         estimate D2E/DX2                !
 ! R39   R(33,34)                1.0713         estimate D2E/DX2                !
 ! R40   R(33,35)                1.0701         estimate D2E/DX2                !
 ! R41   R(33,36)                1.0707         estimate D2E/DX2                !
 ! R42   R(37,38)                1.4082         estimate D2E/DX2                !
 ! R43   R(37,44)                1.3999         estimate D2E/DX2                !
 ! R44   R(37,47)                1.4326         estimate D2E/DX2                !
 ! R45   R(38,39)                1.4083         estimate D2E/DX2                !
 ! R46   R(38,46)                1.0697         estimate D2E/DX2                !
 ! R47   R(39,40)                1.0687         estimate D2E/DX2                !
 ! R48   R(39,41)                1.4033         estimate D2E/DX2                !
 ! R49   R(41,42)                1.3982         estimate D2E/DX2                !
 ! R50   R(42,43)                1.0714         estimate D2E/DX2                !
 ! R51   R(42,44)                1.3972         estimate D2E/DX2                !
 ! R52   R(44,45)                1.073          estimate D2E/DX2                !
 ! R53   R(47,48)                1.4293         estimate D2E/DX2                !
 ! R54   R(48,49)                1.0693         estimate D2E/DX2                !
 ! R55   R(48,50)                1.0699         estimate D2E/DX2                !
 ! R56   R(48,51)                1.5409         estimate D2E/DX2                !
 ! R57   R(51,52)                1.0708         estimate D2E/DX2                !
 ! R58   R(51,53)                1.0696         estimate D2E/DX2                !
 ! R59   R(51,54)                1.5389         estimate D2E/DX2                !
 ! R60   R(54,55)                1.0705         estimate D2E/DX2                !
 ! R61   R(54,56)                1.0691         estimate D2E/DX2                !
 ! R62   R(54,57)                1.5391         estimate D2E/DX2                !
 ! R63   R(57,58)                1.0709         estimate D2E/DX2                !
 ! R64   R(57,59)                1.0699         estimate D2E/DX2                !
 ! R65   R(57,60)                1.0717         estimate D2E/DX2                !
 ! A1    A(2,1,3)              108.5951         estimate D2E/DX2                !
 ! A2    A(2,1,12)             125.5473         estimate D2E/DX2                !
 ! A3    A(3,1,12)             125.8576         estimate D2E/DX2                !
 ! A4    A(1,2,5)              102.3811         estimate D2E/DX2                !
 ! A5    A(1,2,9)              128.7905         estimate D2E/DX2                !
 ! A6    A(5,2,9)              128.8283         estimate D2E/DX2                !
 ! A7    A(1,3,4)              108.4975         estimate D2E/DX2                !
 ! A8    A(1,3,41)             127.5287         estimate D2E/DX2                !
 ! A9    A(4,3,41)             123.9736         estimate D2E/DX2                !
 ! A10   A(3,4,5)              113.5008         estimate D2E/DX2                !
 ! A11   A(3,4,7)              139.0227         estimate D2E/DX2                !
 ! A12   A(5,4,7)              107.4764         estimate D2E/DX2                !
 ! A13   A(2,5,4)              107.0245         estimate D2E/DX2                !
 ! A14   A(2,5,6)              140.1114         estimate D2E/DX2                !
 ! A15   A(4,5,6)              112.8641         estimate D2E/DX2                !
 ! A16   A(5,6,8)              108.3516         estimate D2E/DX2                !
 ! A17   A(5,6,17)             126.8175         estimate D2E/DX2                !
 ! A18   A(8,6,17)             124.8306         estimate D2E/DX2                !
 ! A19   A(4,7,8)              102.2691         estimate D2E/DX2                !
 ! A20   A(4,7,10)             128.9508         estimate D2E/DX2                !
 ! A21   A(8,7,10)             128.78           estimate D2E/DX2                !
 ! A22   A(6,8,7)              109.0351         estimate D2E/DX2                !
 ! A23   A(6,8,11)             125.4403         estimate D2E/DX2                !
 ! A24   A(7,8,11)             125.5244         estimate D2E/DX2                !
 ! A25   A(14,13,20)           120.066          estimate D2E/DX2                !
 ! A26   A(14,13,23)           120.298          estimate D2E/DX2                !
 ! A27   A(20,13,23)           119.6357         estimate D2E/DX2                !
 ! A28   A(13,14,15)           119.9829         estimate D2E/DX2                !
 ! A29   A(13,14,22)           120.06           estimate D2E/DX2                !
 ! A30   A(15,14,22)           119.9571         estimate D2E/DX2                !
 ! A31   A(14,15,16)           120.155          estimate D2E/DX2                !
 ! A32   A(14,15,17)           119.8305         estimate D2E/DX2                !
 ! A33   A(16,15,17)           120.0142         estimate D2E/DX2                !
 ! A34   A(6,17,15)            120.7534         estimate D2E/DX2                !
 ! A35   A(6,17,18)            119.178          estimate D2E/DX2                !
 ! A36   A(15,17,18)           120.0685         estimate D2E/DX2                !
 ! A37   A(17,18,19)           119.7042         estimate D2E/DX2                !
 ! A38   A(17,18,20)           120.1374         estimate D2E/DX2                !
 ! A39   A(19,18,20)           120.1581         estimate D2E/DX2                !
 ! A40   A(13,20,18)           119.9124         estimate D2E/DX2                !
 ! A41   A(13,20,21)           120.0176         estimate D2E/DX2                !
 ! A42   A(18,20,21)           120.0699         estimate D2E/DX2                !
 ! A43   A(13,23,24)           109.6826         estimate D2E/DX2                !
 ! A44   A(23,24,25)           109.5301         estimate D2E/DX2                !
 ! A45   A(23,24,26)           109.535          estimate D2E/DX2                !
 ! A46   A(23,24,27)           109.2403         estimate D2E/DX2                !
 ! A47   A(25,24,26)           109.4675         estimate D2E/DX2                !
 ! A48   A(25,24,27)           109.6113         estimate D2E/DX2                !
 ! A49   A(26,24,27)           109.4429         estimate D2E/DX2                !
 ! A50   A(24,27,28)           109.4484         estimate D2E/DX2                !
 ! A51   A(24,27,29)           109.4598         estimate D2E/DX2                !
 ! A52   A(24,27,30)           109.4507         estimate D2E/DX2                !
 ! A53   A(28,27,29)           109.4652         estimate D2E/DX2                !
 ! A54   A(28,27,30)           109.5784         estimate D2E/DX2                !
 ! A55   A(29,27,30)           109.4248         estimate D2E/DX2                !
 ! A56   A(27,30,31)           109.4503         estimate D2E/DX2                !
 ! A57   A(27,30,32)           109.5843         estimate D2E/DX2                !
 ! A58   A(27,30,33)           109.2253         estimate D2E/DX2                !
 ! A59   A(31,30,32)           109.4234         estimate D2E/DX2                !
 ! A60   A(31,30,33)           109.642          estimate D2E/DX2                !
 ! A61   A(32,30,33)           109.502          estimate D2E/DX2                !
 ! A62   A(30,33,34)           109.4643         estimate D2E/DX2                !
 ! A63   A(30,33,35)           109.4685         estimate D2E/DX2                !
 ! A64   A(30,33,36)           109.4617         estimate D2E/DX2                !
 ! A65   A(34,33,35)           109.4717         estimate D2E/DX2                !
 ! A66   A(34,33,36)           109.4579         estimate D2E/DX2                !
 ! A67   A(35,33,36)           109.5032         estimate D2E/DX2                !
 ! A68   A(38,37,44)           119.8633         estimate D2E/DX2                !
 ! A69   A(38,37,47)           121.4939         estimate D2E/DX2                !
 ! A70   A(44,37,47)           118.6428         estimate D2E/DX2                !
 ! A71   A(37,38,39)           119.7972         estimate D2E/DX2                !
 ! A72   A(37,38,46)           120.1486         estimate D2E/DX2                !
 ! A73   A(39,38,46)           120.0542         estimate D2E/DX2                !
 ! A74   A(38,39,40)           120.2568         estimate D2E/DX2                !
 ! A75   A(38,39,41)           119.8584         estimate D2E/DX2                !
 ! A76   A(40,39,41)           119.8848         estimate D2E/DX2                !
 ! A77   A(3,41,39)            121.6244         estimate D2E/DX2                !
 ! A78   A(3,41,42)            118.3884         estimate D2E/DX2                !
 ! A79   A(39,41,42)           119.9868         estimate D2E/DX2                !
 ! A80   A(41,42,43)           119.6288         estimate D2E/DX2                !
 ! A81   A(41,42,44)           120.3233         estimate D2E/DX2                !
 ! A82   A(43,42,44)           120.0479         estimate D2E/DX2                !
 ! A83   A(37,44,42)           120.1698         estimate D2E/DX2                !
 ! A84   A(37,44,45)           119.8929         estimate D2E/DX2                !
 ! A85   A(42,44,45)           119.9373         estimate D2E/DX2                !
 ! A86   A(37,47,48)           111.3418         estimate D2E/DX2                !
 ! A87   A(47,48,49)           109.6714         estimate D2E/DX2                !
 ! A88   A(47,48,50)           109.4334         estimate D2E/DX2                !
 ! A89   A(47,48,51)           109.1485         estimate D2E/DX2                !
 ! A90   A(49,48,50)           109.4907         estimate D2E/DX2                !
 ! A91   A(49,48,51)           109.759          estimate D2E/DX2                !
 ! A92   A(50,48,51)           109.3229         estimate D2E/DX2                !
 ! A93   A(48,51,52)           109.4425         estimate D2E/DX2                !
 ! A94   A(48,51,53)           109.3104         estimate D2E/DX2                !
 ! A95   A(48,51,54)           109.7563         estimate D2E/DX2                !
 ! A96   A(52,51,53)           109.4918         estimate D2E/DX2                !
 ! A97   A(52,51,54)           109.5331         estimate D2E/DX2                !
 ! A98   A(53,51,54)           109.2929         estimate D2E/DX2                !
 ! A99   A(51,54,55)           109.3823         estimate D2E/DX2                !
 ! A100  A(51,54,56)           109.6035         estimate D2E/DX2                !
 ! A101  A(51,54,57)           109.2737         estimate D2E/DX2                !
 ! A102  A(55,54,56)           109.5031         estimate D2E/DX2                !
 ! A103  A(55,54,57)           109.5392         estimate D2E/DX2                !
 ! A104  A(56,54,57)           109.5253         estimate D2E/DX2                !
 ! A105  A(54,57,58)           109.4163         estimate D2E/DX2                !
 ! A106  A(54,57,59)           109.418          estimate D2E/DX2                !
 ! A107  A(54,57,60)           109.5045         estimate D2E/DX2                !
 ! A108  A(58,57,59)           109.5626         estimate D2E/DX2                !
 ! A109  A(58,57,60)           109.4434         estimate D2E/DX2                !
 ! A110  A(59,57,60)           109.4824         estimate D2E/DX2                !
 ! D1    D(3,1,2,5)             -0.1957         estimate D2E/DX2                !
 ! D2    D(3,1,2,9)            179.9054         estimate D2E/DX2                !
 ! D3    D(12,1,2,5)           179.8584         estimate D2E/DX2                !
 ! D4    D(12,1,2,9)            -0.0405         estimate D2E/DX2                !
 ! D5    D(2,1,3,4)              0.0313         estimate D2E/DX2                !
 ! D6    D(2,1,3,41)           179.8798         estimate D2E/DX2                !
 ! D7    D(12,1,3,4)           179.977          estimate D2E/DX2                !
 ! D8    D(12,1,3,41)           -0.1745         estimate D2E/DX2                !
 ! D9    D(1,2,5,4)              0.2943         estimate D2E/DX2                !
 ! D10   D(1,2,5,6)           -179.5951         estimate D2E/DX2                !
 ! D11   D(9,2,5,4)           -179.8069         estimate D2E/DX2                !
 ! D12   D(9,2,5,6)              0.3037         estimate D2E/DX2                !
 ! D13   D(1,3,4,5)              0.1793         estimate D2E/DX2                !
 ! D14   D(1,3,4,7)           -179.9551         estimate D2E/DX2                !
 ! D15   D(41,3,4,5)          -179.6759         estimate D2E/DX2                !
 ! D16   D(41,3,4,7)             0.1898         estimate D2E/DX2                !
 ! D17   D(1,3,41,39)            0.3045         estimate D2E/DX2                !
 ! D18   D(1,3,41,42)         -179.4636         estimate D2E/DX2                !
 ! D19   D(4,3,41,39)         -179.8688         estimate D2E/DX2                !
 ! D20   D(4,3,41,42)            0.3631         estimate D2E/DX2                !
 ! D21   D(3,4,5,2)             -0.3049         estimate D2E/DX2                !
 ! D22   D(3,4,5,6)            179.6181         estimate D2E/DX2                !
 ! D23   D(7,4,5,2)            179.7875         estimate D2E/DX2                !
 ! D24   D(7,4,5,6)             -0.2895         estimate D2E/DX2                !
 ! D25   D(3,4,7,8)           -179.9721         estimate D2E/DX2                !
 ! D26   D(3,4,7,10)             0.1013         estimate D2E/DX2                !
 ! D27   D(5,4,7,8)             -0.1013         estimate D2E/DX2                !
 ! D28   D(5,4,7,10)           179.9721         estimate D2E/DX2                !
 ! D29   D(2,5,6,8)           -179.5226         estimate D2E/DX2                !
 ! D30   D(2,5,6,17)             0.6799         estimate D2E/DX2                !
 ! D31   D(4,5,6,8)              0.5922         estimate D2E/DX2                !
 ! D32   D(4,5,6,17)          -179.2053         estimate D2E/DX2                !
 ! D33   D(5,6,8,7)             -0.6371         estimate D2E/DX2                !
 ! D34   D(5,6,8,11)           179.5331         estimate D2E/DX2                !
 ! D35   D(17,6,8,7)           179.1654         estimate D2E/DX2                !
 ! D36   D(17,6,8,11)           -0.6644         estimate D2E/DX2                !
 ! D37   D(5,6,17,15)           -0.378          estimate D2E/DX2                !
 ! D38   D(5,6,17,18)          179.4989         estimate D2E/DX2                !
 ! D39   D(8,6,17,15)          179.8562         estimate D2E/DX2                !
 ! D40   D(8,6,17,18)           -0.2669         estimate D2E/DX2                !
 ! D41   D(4,7,8,6)              0.4485         estimate D2E/DX2                !
 ! D42   D(4,7,8,11)          -179.7219         estimate D2E/DX2                !
 ! D43   D(10,7,8,6)          -179.6248         estimate D2E/DX2                !
 ! D44   D(10,7,8,11)            0.2048         estimate D2E/DX2                !
 ! D45   D(20,13,14,15)          0.3225         estimate D2E/DX2                !
 ! D46   D(20,13,14,22)       -179.7462         estimate D2E/DX2                !
 ! D47   D(23,13,14,15)       -179.4652         estimate D2E/DX2                !
 ! D48   D(23,13,14,22)          0.4661         estimate D2E/DX2                !
 ! D49   D(14,13,20,18)         -0.0785         estimate D2E/DX2                !
 ! D50   D(14,13,20,21)       -179.9547         estimate D2E/DX2                !
 ! D51   D(23,13,20,18)        179.7107         estimate D2E/DX2                !
 ! D52   D(23,13,20,21)         -0.1656         estimate D2E/DX2                !
 ! D53   D(14,13,23,24)        -28.983          estimate D2E/DX2                !
 ! D54   D(20,13,23,24)        151.2284         estimate D2E/DX2                !
 ! D55   D(13,14,15,16)        179.6974         estimate D2E/DX2                !
 ! D56   D(13,14,15,17)         -0.1322         estimate D2E/DX2                !
 ! D57   D(22,14,15,16)         -0.234          estimate D2E/DX2                !
 ! D58   D(22,14,15,17)        179.9364         estimate D2E/DX2                !
 ! D59   D(14,15,17,6)         179.5743         estimate D2E/DX2                !
 ! D60   D(14,15,17,18)         -0.3015         estimate D2E/DX2                !
 ! D61   D(16,15,17,6)          -0.2555         estimate D2E/DX2                !
 ! D62   D(16,15,17,18)        179.8687         estimate D2E/DX2                !
 ! D63   D(6,17,18,19)           0.4552         estimate D2E/DX2                !
 ! D64   D(6,17,18,20)        -179.3309         estimate D2E/DX2                !
 ! D65   D(15,17,18,19)       -179.667          estimate D2E/DX2                !
 ! D66   D(15,17,18,20)          0.5469         estimate D2E/DX2                !
 ! D67   D(17,18,20,13)         -0.3561         estimate D2E/DX2                !
 ! D68   D(17,18,20,21)        179.5201         estimate D2E/DX2                !
 ! D69   D(19,18,20,13)        179.8588         estimate D2E/DX2                !
 ! D70   D(19,18,20,21)         -0.265          estimate D2E/DX2                !
 ! D71   D(13,23,24,25)         61.4872         estimate D2E/DX2                !
 ! D72   D(13,23,24,26)        -58.5836         estimate D2E/DX2                !
 ! D73   D(13,23,24,27)       -178.4467         estimate D2E/DX2                !
 ! D74   D(23,24,27,28)       -179.5846         estimate D2E/DX2                !
 ! D75   D(23,24,27,29)         60.4438         estimate D2E/DX2                !
 ! D76   D(23,24,27,30)        -59.4799         estimate D2E/DX2                !
 ! D77   D(25,24,27,28)        -59.5684         estimate D2E/DX2                !
 ! D78   D(25,24,27,29)       -179.54           estimate D2E/DX2                !
 ! D79   D(25,24,27,30)         60.5364         estimate D2E/DX2                !
 ! D80   D(26,24,27,28)         60.4956         estimate D2E/DX2                !
 ! D81   D(26,24,27,29)        -59.476          estimate D2E/DX2                !
 ! D82   D(26,24,27,30)       -179.3997         estimate D2E/DX2                !
 ! D83   D(24,27,30,31)         59.547          estimate D2E/DX2                !
 ! D84   D(24,27,30,32)        -60.4509         estimate D2E/DX2                !
 ! D85   D(24,27,30,33)        179.5929         estimate D2E/DX2                !
 ! D86   D(28,27,30,31)        179.5721         estimate D2E/DX2                !
 ! D87   D(28,27,30,32)         59.5742         estimate D2E/DX2                !
 ! D88   D(28,27,30,33)        -60.382          estimate D2E/DX2                !
 ! D89   D(29,27,30,31)        -60.3981         estimate D2E/DX2                !
 ! D90   D(29,27,30,32)        179.604          estimate D2E/DX2                !
 ! D91   D(29,27,30,33)         59.6478         estimate D2E/DX2                !
 ! D92   D(27,30,33,34)         59.936          estimate D2E/DX2                !
 ! D93   D(27,30,33,35)        179.9307         estimate D2E/DX2                !
 ! D94   D(27,30,33,36)        -60.0376         estimate D2E/DX2                !
 ! D95   D(31,30,33,34)        179.864          estimate D2E/DX2                !
 ! D96   D(31,30,33,35)        -60.1413         estimate D2E/DX2                !
 ! D97   D(31,30,33,36)         59.8904         estimate D2E/DX2                !
 ! D98   D(32,30,33,34)        -60.0708         estimate D2E/DX2                !
 ! D99   D(32,30,33,35)         59.9239         estimate D2E/DX2                !
 ! D100  D(32,30,33,36)        179.9556         estimate D2E/DX2                !
 ! D101  D(44,37,38,39)         -0.0291         estimate D2E/DX2                !
 ! D102  D(44,37,38,46)        179.977          estimate D2E/DX2                !
 ! D103  D(47,37,38,39)       -179.9785         estimate D2E/DX2                !
 ! D104  D(47,37,38,46)          0.0276         estimate D2E/DX2                !
 ! D105  D(38,37,44,42)          0.2729         estimate D2E/DX2                !
 ! D106  D(38,37,44,45)       -179.69           estimate D2E/DX2                !
 ! D107  D(47,37,44,42)       -179.7763         estimate D2E/DX2                !
 ! D108  D(47,37,44,45)          0.2609         estimate D2E/DX2                !
 ! D109  D(38,37,47,48)        -31.2816         estimate D2E/DX2                !
 ! D110  D(44,37,47,48)        148.7684         estimate D2E/DX2                !
 ! D111  D(37,38,39,40)        179.7795         estimate D2E/DX2                !
 ! D112  D(37,38,39,41)         -0.2836         estimate D2E/DX2                !
 ! D113  D(46,38,39,40)         -0.2265         estimate D2E/DX2                !
 ! D114  D(46,38,39,41)        179.7104         estimate D2E/DX2                !
 ! D115  D(38,39,41,3)        -179.4103         estimate D2E/DX2                !
 ! D116  D(38,39,41,42)          0.3541         estimate D2E/DX2                !
 ! D117  D(40,39,41,3)           0.5268         estimate D2E/DX2                !
 ! D118  D(40,39,41,42)       -179.7088         estimate D2E/DX2                !
 ! D119  D(3,41,42,43)          -0.3087         estimate D2E/DX2                !
 ! D120  D(3,41,42,44)         179.6607         estimate D2E/DX2                !
 ! D121  D(39,41,42,43)        179.9193         estimate D2E/DX2                !
 ! D122  D(39,41,42,44)         -0.1113         estimate D2E/DX2                !
 ! D123  D(41,42,44,37)         -0.2037         estimate D2E/DX2                !
 ! D124  D(41,42,44,45)        179.7592         estimate D2E/DX2                !
 ! D125  D(43,42,44,37)        179.7656         estimate D2E/DX2                !
 ! D126  D(43,42,44,45)         -0.2716         estimate D2E/DX2                !
 ! D127  D(37,47,48,49)         63.7161         estimate D2E/DX2                !
 ! D128  D(37,47,48,50)        -56.4074         estimate D2E/DX2                !
 ! D129  D(37,47,48,51)       -176.0073         estimate D2E/DX2                !
 ! D130  D(47,48,51,52)       -179.4047         estimate D2E/DX2                !
 ! D131  D(47,48,51,53)         60.6859         estimate D2E/DX2                !
 ! D132  D(47,48,51,54)        -59.1711         estimate D2E/DX2                !
 ! D133  D(49,48,51,52)        -59.1819         estimate D2E/DX2                !
 ! D134  D(49,48,51,53)       -179.0913         estimate D2E/DX2                !
 ! D135  D(49,48,51,54)         61.0517         estimate D2E/DX2                !
 ! D136  D(50,48,51,52)         60.9272         estimate D2E/DX2                !
 ! D137  D(50,48,51,53)        -58.9823         estimate D2E/DX2                !
 ! D138  D(50,48,51,54)       -178.8393         estimate D2E/DX2                !
 ! D139  D(48,51,54,55)         59.5184         estimate D2E/DX2                !
 ! D140  D(48,51,54,56)        -60.5471         estimate D2E/DX2                !
 ! D141  D(48,51,54,57)        179.4269         estimate D2E/DX2                !
 ! D142  D(52,51,54,55)        179.6968         estimate D2E/DX2                !
 ! D143  D(52,51,54,56)         59.6313         estimate D2E/DX2                !
 ! D144  D(52,51,54,57)        -60.3946         estimate D2E/DX2                !
 ! D145  D(53,51,54,55)        -60.3494         estimate D2E/DX2                !
 ! D146  D(53,51,54,56)        179.5851         estimate D2E/DX2                !
 ! D147  D(53,51,54,57)         59.5592         estimate D2E/DX2                !
 ! D148  D(51,54,57,58)         59.8905         estimate D2E/DX2                !
 ! D149  D(51,54,57,59)        179.9363         estimate D2E/DX2                !
 ! D150  D(51,54,57,60)        -60.0622         estimate D2E/DX2                !
 ! D151  D(55,54,57,58)        179.7025         estimate D2E/DX2                !
 ! D152  D(55,54,57,59)        -60.2517         estimate D2E/DX2                !
 ! D153  D(55,54,57,60)         59.7498         estimate D2E/DX2                !
 ! D154  D(56,54,57,58)        -60.1835         estimate D2E/DX2                !
 ! D155  D(56,54,57,59)         59.8623         estimate D2E/DX2                !
 ! D156  D(56,54,57,60)        179.8638         estimate D2E/DX2                !
 --------------------------------------------------------------------------------
 Trust Radius=3.00D-01 FncErr=1.00D-07 GrdErr=1.00D-06
 Number of steps in this run=    341 maximum allowed number of steps=    360.
 GradGradGradGradGradGradGradGradGradGradGradGradGradGradGradGradGradGrad

 Stoichiometry    C26H28N2O4
 Framework group  C1[X(C26H28N2O4)]
 Deg. of freedom   174
 Full point group                 C1      NOp   1
 Largest Abelian subgroup         C1      NOp   1
 Largest concise Abelian subgroup C1      NOp   1
                         Standard orientation:                         
 ---------------------------------------------------------------------
 Center     Atomic      Atomic             Coordinates (Angstroms)
 Number     Number       Type             X           Y           Z
 ---------------------------------------------------------------------
      1          7           0        0.833067   -1.898538   -0.119780
      2          6           0       -0.628140   -1.613775   -0.130182
      3          6           0        1.515609   -0.698017   -0.073555
      4          6           0        0.605748    0.316051   -0.053370
      5          6           0       -0.664335   -0.105810   -0.078844
      6          6           0       -1.567561    0.923285   -0.049737
      7          6           0        0.581565    1.820504   -0.007377
      8          7           0       -0.870078    2.112251   -0.015271
      9          8           0       -1.589515   -2.425456   -0.169637
     10          8           0        1.546377    2.625750    0.027347
     11          1           0       -1.279493    3.024258    0.004072
     12          1           0        1.248650   -2.808619   -0.143309
     13          6           0       -5.898154    0.630746   -0.026870
     14          6           0       -5.124249   -0.537351   -0.079260
     15          6           0       -3.723486   -0.450778   -0.089224
     16          1           0       -3.130183   -1.340570   -0.124277
     17          6           0       -3.102801    0.803912   -0.049543
     18          6           0       -3.878470    1.969666   -0.006409
     19          1           0       -3.397669    2.926481    0.018407
     20          6           0       -5.274966    1.884106    0.008715
     21          1           0       -5.866503    2.775299    0.049434
     22          1           0       -5.601308   -1.496313   -0.110594
     23          8           0       -7.324811    0.550018   -0.004909
     24          6           0       -7.750056   -0.628062   -0.688333
     25          1           0       -7.360481   -1.490415   -0.190481
     26          1           0       -7.391601   -0.605963   -1.696765
     27          6           0       -9.285775   -0.684667   -0.692446
     28          1           0       -9.608374   -1.571146   -1.198171
     29          1           0       -9.672750    0.175034   -1.198044
     30          6           0       -9.801419   -0.701236    0.756057
     31          1           0       -9.471180    0.183113    1.262384
     32          1           0       -9.421673   -1.563290    1.261813
     33          6           0      -11.339088   -0.747595    0.745883
     34          1           0      -11.666202   -1.631649    0.236923
     35          1           0      -11.702186   -0.760473    1.752427
     36          1           0      -11.718689    0.116320    0.239961
     37          6           0        5.808558   -0.011038    0.030916
     38          6           0        5.324686   -1.332115   -0.029017
     39          6           0        3.936868   -1.567921   -0.069696
     40          1           0        3.561700   -2.567369   -0.118802
     41          6           0        3.043371   -0.486146   -0.044302
     42          6           0        3.532029    0.822645    0.013785
     43          1           0        2.844744    1.644331    0.031611
     44          6           0        4.908356    1.060854    0.049145
     45          1           0        5.276627    2.067807    0.089776
     46          1           0        6.008500   -2.154600   -0.043539
     47          8           0        7.212620    0.270546    0.073201
     48          6           0        7.931408   -0.767583    0.742959
     49          1           0        7.840934   -1.680363    0.193399
     50          1           0        7.530268   -0.901363    1.725800
     51          6           0        9.415776   -0.367831    0.848164
     52          1           0        9.960782   -1.147225    1.340164
     53          1           0        9.499267    0.537042    1.412368
     54          6           0        9.995362   -0.144442   -0.559769
     55          1           0        9.445476    0.631409   -1.051335
     56          1           0        9.920962   -1.048321   -1.125863
     57          6           0       11.473360    0.268027   -0.441151
     58          1           0       12.020543   -0.507130    0.055430
     59          1           0       11.879019    0.422892   -1.419004
     60          1           0       11.547360    1.175389    0.124337
 ---------------------------------------------------------------------
 Rotational constants (GHZ):      0.6527841      0.0316199      0.0304185
 Standard basis: 6-31+G(d,p) (6D, 7F)
 There are   748 symmetry adapted basis functions of A   symmetry.
 Integral buffers will be    262144 words long.
 Raffenetti 2 integral format.
 Two-electron integral symmetry is turned on.
   748 basis functions,  1220 primitive gaussians,   748 cartesian basis functions
   115 alpha electrons      115 beta electrons
       nuclear repulsion energy      2829.6404582171 Hartrees.
 NAtoms=   60 NActive=   60 NUniq=   60 SFac= 1.00D+00 NAtFMM=   50 NAOKFM=T Big=T
 One-electron integrals computed using PRISM.
 NBasis=   748 RedAO= T  NBF=   748
 NBsUse=   740 1.00D-06 NBFU=   740
 Harris functional with IExCor=  402 diagonalized for initial guess.
 ExpMin= 4.38D-02 ExpMax= 5.48D+03 ExpMxC= 8.25D+02 IAcc=2 IRadAn=         0 AccDes= 0.00D+00
 HarFok:  IExCor=  402 AccDes= 0.00D+00 IRadAn=         0 IDoV= 1
 ScaDFX=  1.000000  1.000000  1.000000  1.000000
 FoFCou: FMM=F IPFlag=           0 FMFlag=      100000 FMFlg1=        2001
         NFxFlg=           0 DoJE=T BraDBF=F KetDBF=T FulRan=T
         Omega=  0.000000  0.000000  1.000000  0.000000  0.000000 ICntrl=     500 IOpCl=  0
         NMat0=    1 NMatS0=    1 NMatT0=    0 NMatD0=    1 NMtDS0=    0 NMtDT0=    0
         I1Cent=           4 NGrid=           0.
 Petite list used in FoFCou.
 Initial guess orbital symmetries:
       Occupied  (A) (A) (A) (A) (A) (A) (A) (A) (A) (A) (A) (A)
                 (A) (A) (A) (A) (A) (A) (A) (A) (A) (A) (A) (A)
                 (A) (A) (A) (A) (A) (A) (A) (A) (A) (A) (A) (A)
                 (A) (A) (A) (A) (A) (A) (A) (A) (A) (A) (A) (A)
                 (A) (A) (A) (A) (A) (A) (A) (A) (A) (A) (A) (A)
                 (A) (A) (A) (A) (A) (A) (A) (A) (A) (A) (A) (A)
                 (A) (A) (A) (A) (A) (A) (A) (A) (A) (A) (A) (A)
                 (A) (A) (A) (A) (A) (A) (A) (A) (A) (A) (A) (A)
                 (A) (A) (A) (A) (A) (A) (A) (A) (A) (A) (A) (A)
                 (A) (A) (A) (A) (A) (A) (A)
       Virtual   (A) (A) (A) (A) (A) (A) (A) (A) (A) (A) (A) (A)
                 (A) (A) (A) (A) (A) (A) (A) (A) (A) (A) (A) (A)
                 (A) (A) (A) (A) (A) (A) (A) (A) (A) (A) (A) (A)
                 (A) (A) (A) (A) (A) (A) (A) (A) (A) (A) (A) (A)
                 (A) (A) (A) (A) (A) (A) (A) (A) (A) (A) (A) (A)
                 (A) (A) (A) (A) (A) (A) (A) (A) (A) (A) (A) (A)
                 (A) (A) (A) (A) (A) (A) (A) (A) (A) (A) (A) (A)
                 (A) (A) (A) (A) (A) (A) (A) (A) (A) (A) (A) (A)
                 (A) (A) (A) (A) (A) (A) (A) (A) (A) (A) (A) (A)
                 (A) (A) (A) (A) (A) (A) (A) (A) (A) (A) (A) (A)
                 (A) (A) (A) (A) (A) (A) (A) (A) (A) (A) (A) (A)
                 (A) (A) (A) (A) (A) (A) (A) (A) (A) (A) (A) (A)
                 (A) (A) (A) (A) (A) (A) (A) (A) (A) (A) (A) (A)
                 (A) (A) (A) (A) (A) (A) (A) (A) (A) (A) (A) (A)
                 (A) (A) (A) (A) (A) (A) (A) (A) (A) (A) (A) (A)
                 (A) (A) (A) (A) (A) (A) (A) (A) (A) (A) (A) (A)
                 (A) (A) (A) (A) (A) (A) (A) (A) (A) (A) (A) (A)
                 (A) (A) (A) (A) (A) (A) (A) (A) (A) (A) (A) (A)
                 (A) (A) (A) (A) (A) (A) (A) (A) (A) (A) (A) (A)
                 (A) (A) (A) (A) (A) (A) (A) (A) (A) (A) (A) (A)
                 (A) (A) (A) (A) (A) (A) (A) (A) (A) (A) (A) (A)
                 (A) (A) (A) (A) (A) (A) (A) (A) (A) (A) (A) (A)
                 (A) (A) (A) (A) (A) (A) (A) (A) (A) (A) (A) (A)
                 (A) (A) (A) (A) (A) (A) (A) (A) (A) (A) (A) (A)
                 (A) (A) (A) (A) (A) (A) (A) (A) (A) (A) (A) (A)
                 (A) (A) (A) (A) (A) (A) (A) (A) (A) (A) (A) (A)
                 (A) (A) (A) (A) (A) (A) (A) (A) (A) (A) (A) (A)
                 (A) (A) (A) (A) (A) (A) (A) (A) (A) (A) (A) (A)
                 (A) (A) (A) (A) (A) (A) (A) (A) (A) (A) (A) (A)
                 (A) (A) (A) (A) (A) (A) (A) (A) (A) (A) (A) (A)
                 (A) (A) (A) (A) (A) (A) (A) (A) (A) (A) (A) (A)
                 (A) (A) (A) (A) (A) (A) (A) (A) (A) (A) (A) (A)
                 (A) (A) (A) (A) (A) (A) (A) (A) (A) (A) (A) (A)
                 (A) (A) (A) (A) (A) (A) (A) (A) (A) (A) (A) (A)
                 (A) (A) (A) (A) (A) (A) (A) (A) (A) (A) (A) (A)
                 (A) (A) (A) (A) (A) (A) (A) (A) (A) (A) (A) (A)
                 (A) (A) (A) (A) (A) (A) (A) (A) (A) (A) (A) (A)
                 (A) (A) (A) (A) (A) (A) (A) (A) (A) (A) (A) (A)
                 (A) (A) (A) (A) (A) (A) (A) (A) (A) (A) (A) (A)
                 (A) (A) (A) (A) (A) (A) (A) (A) (A) (A) (A) (A)
                 (A) (A) (A) (A) (A) (A) (A) (A) (A) (A) (A) (A)
                 (A) (A) (A) (A) (A) (A) (A) (A) (A) (A) (A) (A)
                 (A) (A) (A) (A) (A) (A) (A) (A) (A) (A) (A) (A)
                 (A) (A) (A) (A) (A) (A) (A) (A) (A) (A) (A) (A)
                 (A) (A) (A) (A) (A) (A) (A) (A) (A) (A) (A) (A)
                 (A) (A) (A) (A) (A) (A) (A) (A) (A) (A) (A) (A)
                 (A) (A) (A) (A) (A) (A) (A) (A) (A) (A) (A) (A)
                 (A) (A) (A) (A) (A) (A) (A) (A) (A) (A) (A) (A)
                 (A) (A) (A) (A) (A) (A) (A) (A) (A) (A) (A) (A)
                 (A) (A) (A) (A) (A) (A) (A) (A) (A) (A) (A) (A)
                 (A) (A) (A) (A) (A) (A) (A) (A) (A) (A) (A) (A)
                 (A) (A) (A) (A) (A) (A) (A) (A) (A) (A) (A) (A)
                 (A)
 The electronic state of the initial guess is 1-A.
 Requested convergence on RMS density matrix=1.00D-08 within 128 cycles.
 Requested convergence on MAX density matrix=1.00D-06.
 Requested convergence on             energy=1.00D-06.
 No special actions if energy rises.
 Restarting incremental Fock formation.
 SCF Done:  E(RB3LYP) =  -1418.07085131     A.U. after   21 cycles
             Convg  =    0.1934D-08             -V/T =  2.0093

 **********************************************************************

            Population analysis using the SCF density.

 **********************************************************************

 Orbital symmetries:
       Occupied  (A) (A) (A) (A) (A) (A) (A) (A) (A) (A) (A) (A)
                 (A) (A) (A) (A) (A) (A) (A) (A) (A) (A) (A) (A)
                 (A) (A) (A) (A) (A) (A) (A) (A) (A) (A) (A) (A)
                 (A) (A) (A) (A) (A) (A) (A) (A) (A) (A) (A) (A)
                 (A) (A) (A) (A) (A) (A) (A) (A) (A) (A) (A) (A)
                 (A) (A) (A) (A) (A) (A) (A) (A) (A) (A) (A) (A)
                 (A) (A) (A) (A) (A) (A) (A) (A) (A) (A) (A) (A)
                 (A) (A) (A) (A) (A) (A) (A) (A) (A) (A) (A) (A)
                 (A) (A) (A) (A) (A) (A) (A) (A) (A) (A) (A) (A)
                 (A) (A) (A) (A) (A) (A) (A)
       Virtual   (A) (A) (A) (A) (A) (A) (A) (A) (A) (A) (A) (A)
                 (A) (A) (A) (A) (A) (A) (A) (A) (A) (A) (A) (A)
                 (A) (A) (A) (A) (A) (A) (A) (A) (A) (A) (A) (A)
                 (A) (A) (A) (A) (A) (A) (A) (A) (A) (A) (A) (A)
                 (A) (A) (A) (A) (A) (A) (A) (A) (A) (A) (A) (A)
                 (A) (A) (A) (A) (A) (A) (A) (A) (A) (A) (A) (A)
                 (A) (A) (A) (A) (A) (A) (A) (A) (A) (A) (A) (A)
                 (A) (A) (A) (A) (A) (A) (A) (A) (A) (A) (A) (A)
                 (A) (A) (A) (A) (A) (A) (A) (A) (A) (A) (A) (A)
                 (A) (A) (A) (A) (A) (A) (A) (A) (A) (A) (A) (A)
                 (A) (A) (A) (A) (A) (A) (A) (A) (A) (A) (A) (A)
                 (A) (A) (A) (A) (A) (A) (A) (A) (A) (A) (A) (A)
                 (A) (A) (A) (A) (A) (A) (A) (A) (A) (A) (A) (A)
                 (A) (A) (A) (A) (A) (A) (A) (A) (A) (A) (A) (A)
                 (A) (A) (A) (A) (A) (A) (A) (A) (A) (A) (A) (A)
                 (A) (A) (A) (A) (A) (A) (A) (A) (A) (A) (A) (A)
                 (A) (A) (A) (A) (A) (A) (A) (A) (A) (A) (A) (A)
                 (A) (A) (A) (A) (A) (A) (A) (A) (A) (A) (A) (A)
                 (A) (A) (A) (A) (A) (A) (A) (A) (A) (A) (A) (A)
                 (A) (A) (A) (A) (A) (A) (A) (A) (A) (A) (A) (A)
                 (A) (A) (A) (A) (A) (A) (A) (A) (A) (A) (A) (A)
                 (A) (A) (A) (A) (A) (A) (A) (A) (A) (A) (A) (A)
                 (A) (A) (A) (A) (A) (A) (A) (A) (A) (A) (A) (A)
                 (A) (A) (A) (A) (A) (A) (A) (A) (A) (A) (A) (A)
                 (A) (A) (A) (A) (A) (A) (A) (A) (A) (A) (A) (A)
                 (A) (A) (A) (A) (A) (A) (A) (A) (A) (A) (A) (A)
                 (A) (A) (A) (A) (A) (A) (A) (A) (A) (A) (A) (A)
                 (A) (A) (A) (A) (A) (A) (A) (A) (A) (A) (A) (A)
                 (A) (A) (A) (A) (A) (A) (A) (A) (A) (A) (A) (A)
                 (A) (A) (A) (A) (A) (A) (A) (A) (A) (A) (A) (A)
                 (A) (A) (A) (A) (A) (A) (A) (A) (A) (A) (A) (A)
                 (A) (A) (A) (A) (A) (A) (A) (A) (A) (A) (A) (A)
                 (A) (A) (A) (A) (A) (A) (A) (A) (A) (A) (A) (A)
                 (A) (A) (A) (A) (A) (A) (A) (A) (A) (A) (A) (A)
                 (A) (A) (A) (A) (A) (A) (A) (A) (A) (A) (A) (A)
                 (A) (A) (A) (A) (A) (A) (A) (A) (A) (A) (A) (A)
                 (A) (A) (A) (A) (A) (A) (A) (A) (A) (A) (A) (A)
                 (A) (A) (A) (A) (A) (A) (A) (A) (A) (A) (A) (A)
                 (A) (A) (A) (A) (A) (A) (A) (A) (A) (A) (A) (A)
                 (A) (A) (A) (A) (A) (A) (A) (A) (A) (A) (A) (A)
                 (A) (A) (A) (A) (A) (A) (A) (A) (A) (A) (A) (A)
                 (A) (A) (A) (A) (A) (A) (A) (A) (A) (A) (A) (A)
                 (A) (A) (A) (A) (A) (A) (A) (A) (A) (A) (A) (A)
                 (A) (A) (A) (A) (A) (A) (A) (A) (A) (A) (A) (A)
                 (A) (A) (A) (A) (A) (A) (A) (A) (A) (A) (A) (A)
                 (A) (A) (A) (A) (A) (A) (A) (A) (A) (A) (A) (A)
                 (A) (A) (A) (A) (A) (A) (A) (A) (A) (A) (A) (A)
                 (A) (A) (A) (A) (A) (A) (A) (A) (A) (A) (A) (A)
                 (A) (A) (A) (A) (A) (A) (A) (A) (A) (A) (A) (A)
                 (A) (A) (A) (A) (A) (A) (A) (A) (A) (A) (A) (A)
                 (A) (A) (A) (A) (A) (A) (A) (A) (A) (A) (A) (A)
                 (A) (A) (A) (A) (A) (A) (A) (A) (A) (A) (A) (A)
                 (A)
 The electronic state is 1-A.
 Alpha  occ. eigenvalues --  -19.18985 -19.18625 -19.15450 -19.15375 -14.40727
 Alpha  occ. eigenvalues --  -14.40714 -10.32771 -10.32705 -10.27460 -10.27438
 Alpha  occ. eigenvalues --  -10.26685 -10.26397 -10.23838 -10.23817 -10.22642
 Alpha  occ. eigenvalues --  -10.22298 -10.21716 -10.21548 -10.20894 -10.20801
 Alpha  occ. eigenvalues --  -10.20408 -10.20084 -10.19822 -10.19760 -10.19627
 Alpha  occ. eigenvalues --  -10.18681 -10.18549 -10.18545 -10.17728 -10.17671
 Alpha  occ. eigenvalues --  -10.16932 -10.16892  -1.06071  -1.05481  -1.04977
 Alpha  occ. eigenvalues --   -1.04230  -0.98817  -0.97371  -0.87232  -0.86745
 Alpha  occ. eigenvalues --   -0.83362  -0.80753  -0.80591  -0.78016  -0.77180
 Alpha  occ. eigenvalues --   -0.76686  -0.76199  -0.73688  -0.72979  -0.71556
 Alpha  occ. eigenvalues --   -0.69042  -0.67746  -0.65371  -0.65130  -0.62853
 Alpha  occ. eigenvalues --   -0.62415  -0.60991  -0.60644  -0.58853  -0.58689
 Alpha  occ. eigenvalues --   -0.57114  -0.56949  -0.55367  -0.54936  -0.53137
 Alpha  occ. eigenvalues --   -0.51160  -0.49431  -0.48916  -0.48855  -0.48386
 Alpha  occ. eigenvalues --   -0.48014  -0.47629  -0.47099  -0.47034  -0.46637
 Alpha  occ. eigenvalues --   -0.46300  -0.46088  -0.45548  -0.45160  -0.44362
 Alpha  occ. eigenvalues --   -0.43464  -0.43382  -0.42778  -0.42712  -0.40604
 Alpha  occ. eigenvalues --   -0.40110  -0.39962  -0.39905  -0.39676  -0.39318
 Alpha  occ. eigenvalues --   -0.39110  -0.38048  -0.37946  -0.37807  -0.37091
 Alpha  occ. eigenvalues --   -0.36855  -0.36180  -0.35219  -0.35014  -0.34594
 Alpha  occ. eigenvalues --   -0.34488  -0.34085  -0.33989  -0.32228  -0.32044
 Alpha  occ. eigenvalues --   -0.31282  -0.31050  -0.28857  -0.28611  -0.26964
 Alpha  occ. eigenvalues --   -0.26737  -0.26437  -0.25467  -0.24889  -0.19989
 Alpha virt. eigenvalues --   -0.09824  -0.03995  -0.02879  -0.02447  -0.01148
 Alpha virt. eigenvalues --   -0.00962  -0.00608   0.00612   0.00730   0.00777
 Alpha virt. eigenvalues --    0.01729   0.01900   0.02144   0.02445   0.02495
 Alpha virt. eigenvalues --    0.02531   0.03045   0.03657   0.03924   0.04285
 Alpha virt. eigenvalues --    0.04641   0.04829   0.05084   0.05390   0.05674
 Alpha virt. eigenvalues --    0.06042   0.06364   0.06446   0.06740   0.06935
 Alpha virt. eigenvalues --    0.07015   0.07310   0.07523   0.07581   0.07666
 Alpha virt. eigenvalues --    0.08238   0.08261   0.08715   0.08797   0.08841
 Alpha virt. eigenvalues --    0.09335   0.09494   0.09673   0.10009   0.10414
 Alpha virt. eigenvalues --    0.10719   0.11001   0.11467   0.11656   0.11827
 Alpha virt. eigenvalues --    0.12194   0.12316   0.12662   0.12945   0.13130
 Alpha virt. eigenvalues --    0.13356   0.13535   0.13604   0.14016   0.14484
 Alpha virt. eigenvalues --    0.14533   0.14839   0.14981   0.15157   0.15284
 Alpha virt. eigenvalues --    0.15727   0.15818   0.16108   0.16159   0.16363
 Alpha virt. eigenvalues --    0.16871   0.17012   0.17177   0.17204   0.17588
 Alpha virt. eigenvalues --    0.17838   0.18072   0.18157   0.18537   0.18780
 Alpha virt. eigenvalues --    0.18909   0.19245   0.19445   0.19608   0.19913
 Alpha virt. eigenvalues --    0.20286   0.20429   0.20739   0.20831   0.21100
 Alpha virt. eigenvalues --    0.21497   0.21676   0.21789   0.21932   0.22424
 Alpha virt. eigenvalues --    0.22659   0.22820   0.22969   0.23062   0.23160
 Alpha virt. eigenvalues --    0.23444   0.23676   0.23945   0.24083   0.24297
 Alpha virt. eigenvalues --    0.24373   0.24775   0.24849   0.24949   0.25142
 Alpha virt. eigenvalues --    0.25338   0.25394   0.25719   0.25815   0.25901
 Alpha virt. eigenvalues --    0.26378   0.26404   0.27082   0.27277   0.27411
 Alpha virt. eigenvalues --    0.27581   0.27623   0.27730   0.27951   0.28057
 Alpha virt. eigenvalues --    0.28536   0.28682   0.29106   0.29364   0.29572
 Alpha virt. eigenvalues --    0.29914   0.30035   0.30232   0.30378   0.30706
 Alpha virt. eigenvalues --    0.31149   0.31546   0.31661   0.31758   0.32016
 Alpha virt. eigenvalues --    0.32366   0.32865   0.33157   0.33303   0.33584
 Alpha virt. eigenvalues --    0.33662   0.33802   0.33973   0.34211   0.34656
 Alpha virt. eigenvalues --    0.34790   0.34848   0.35063   0.35476   0.36153
 Alpha virt. eigenvalues --    0.36209   0.36592   0.36993   0.37750   0.38339
 Alpha virt. eigenvalues --    0.38436   0.38591   0.38924   0.39174   0.39648
 Alpha virt. eigenvalues --    0.39957   0.40100   0.40406   0.40967   0.41590
 Alpha virt. eigenvalues --    0.42158   0.42639   0.42704   0.42936   0.43289
 Alpha virt. eigenvalues --    0.43388   0.44976   0.45285   0.45883   0.47396
 Alpha virt. eigenvalues --    0.48308   0.48340   0.48893   0.50159   0.50359
 Alpha virt. eigenvalues --    0.52338   0.56035   0.58128   0.59726   0.60982
 Alpha virt. eigenvalues --    0.61240   0.61829   0.62287   0.62532   0.63261
 Alpha virt. eigenvalues --    0.64245   0.64670   0.64967   0.65115   0.66589
 Alpha virt. eigenvalues --    0.66834   0.67801   0.67994   0.68579   0.68864
 Alpha virt. eigenvalues --    0.69316   0.69564   0.69824   0.70110   0.70500
 Alpha virt. eigenvalues --    0.70581   0.71090   0.71274   0.71407   0.71669
 Alpha virt. eigenvalues --    0.71959   0.72688   0.73329   0.73685   0.74604
 Alpha virt. eigenvalues --    0.74867   0.75137   0.75658   0.76025   0.76482
 Alpha virt. eigenvalues --    0.77243   0.78139   0.78412   0.79031   0.79454
 Alpha virt. eigenvalues --    0.79789   0.80077   0.80316   0.81049   0.81438
 Alpha virt. eigenvalues --    0.81978   0.82299   0.82945   0.83304   0.83679
 Alpha virt. eigenvalues --    0.84689   0.85709   0.86960   0.87083   0.87831
 Alpha virt. eigenvalues --    0.88184   0.89035   0.90726   0.90839   0.93230
 Alpha virt. eigenvalues --    0.94115   0.94692   0.95253   0.95561   0.95804
 Alpha virt. eigenvalues --    0.96376   0.97015   0.97459   0.97944   0.97972
 Alpha virt. eigenvalues --    0.98359   0.98655   0.99421   0.99576   1.00105
 Alpha virt. eigenvalues --    1.00702   1.01262   1.01322   1.02288   1.02677
 Alpha virt. eigenvalues --    1.02856   1.04612   1.05557   1.06535   1.07215
 Alpha virt. eigenvalues --    1.08421   1.08576   1.09074   1.09597   1.10001
 Alpha virt. eigenvalues --    1.10057   1.10476   1.11426   1.13057   1.13183
 Alpha virt. eigenvalues --    1.13385   1.13675   1.14138   1.14841   1.15043
 Alpha virt. eigenvalues --    1.15125   1.15778   1.16162   1.16674   1.17130
 Alpha virt. eigenvalues --    1.18378   1.19344   1.19572   1.20783   1.21464
 Alpha virt. eigenvalues --    1.22210   1.22976   1.23044   1.23570   1.24340
 Alpha virt. eigenvalues --    1.24692   1.24756   1.25329   1.25915   1.26699
 Alpha virt. eigenvalues --    1.27036   1.27428   1.28346   1.28620   1.29459
 Alpha virt. eigenvalues --    1.29610   1.30025   1.30531   1.31105   1.31557
 Alpha virt. eigenvalues --    1.31871   1.32590   1.33108   1.33490   1.33718
 Alpha virt. eigenvalues --    1.34192   1.36028   1.36073   1.36929   1.37526
 Alpha virt. eigenvalues --    1.38017   1.38232   1.38436   1.38671   1.38842
 Alpha virt. eigenvalues --    1.39125   1.39313   1.40012   1.40538   1.40715
 Alpha virt. eigenvalues --    1.41260   1.41302   1.43013   1.43616   1.44376
 Alpha virt. eigenvalues --    1.45109   1.46065   1.47183   1.48315   1.48615
 Alpha virt. eigenvalues --    1.49235   1.49486   1.51653   1.51854   1.53876
 Alpha virt. eigenvalues --    1.55133   1.55965   1.58183   1.59346   1.59901
 Alpha virt. eigenvalues --    1.63843   1.64792   1.64924   1.66027   1.66911
 Alpha virt. eigenvalues --    1.67213   1.67817   1.68804   1.68873   1.70652
 Alpha virt. eigenvalues --    1.71934   1.72761   1.73933   1.74260   1.75240
 Alpha virt. eigenvalues --    1.75521   1.76641   1.76849   1.78105   1.79614
 Alpha virt. eigenvalues --    1.80019   1.81862   1.82089   1.82545   1.82863
 Alpha virt. eigenvalues --    1.82893   1.84059   1.84314   1.85301   1.86384
 Alpha virt. eigenvalues --    1.87414   1.87679   1.89337   1.89638   1.89994
 Alpha virt. eigenvalues --    1.90706   1.91798   1.92893   1.93740   1.93928
 Alpha virt. eigenvalues --    1.94558   1.94872   1.96197   1.96471   1.96698
 Alpha virt. eigenvalues --    1.97025   1.97312   1.98181   1.98966   1.99262
 Alpha virt. eigenvalues --    1.99606   2.00239   2.00346   2.01180   2.01484
 Alpha virt. eigenvalues --    2.02145   2.03424   2.04292   2.04782   2.04946
 Alpha virt. eigenvalues --    2.05590   2.06285   2.06618   2.07340   2.08321
 Alpha virt. eigenvalues --    2.09610   2.10102   2.10754   2.10991   2.11527
 Alpha virt. eigenvalues --    2.12338   2.12387   2.14226   2.14502   2.14733
 Alpha virt. eigenvalues --    2.14826   2.15494   2.16200   2.16250   2.16643
 Alpha virt. eigenvalues --    2.17588   2.18106   2.18483   2.19448   2.20217
 Alpha virt. eigenvalues --    2.20763   2.25093   2.25936   2.26391   2.27058
 Alpha virt. eigenvalues --    2.27221   2.27661   2.28390   2.28665   2.29013
 Alpha virt. eigenvalues --    2.29166   2.29698   2.29855   2.30554   2.31498
 Alpha virt. eigenvalues --    2.32024   2.32089   2.32333   2.33788   2.34136
 Alpha virt. eigenvalues --    2.34608   2.37280   2.38098   2.38631   2.40162
 Alpha virt. eigenvalues --    2.41212   2.41969   2.42314   2.42808   2.43498
 Alpha virt. eigenvalues --    2.45048   2.45368   2.45963   2.47099   2.49142
 Alpha virt. eigenvalues --    2.50043   2.50563   2.50814   2.51629   2.52017
 Alpha virt. eigenvalues --    2.52351   2.52988   2.53681   2.53958   2.54834
 Alpha virt. eigenvalues --    2.55205   2.55947   2.56451   2.57203   2.57590
 Alpha virt. eigenvalues --    2.58519   2.60074   2.60709   2.61147   2.61876
 Alpha virt. eigenvalues --    2.62065   2.62621   2.63879   2.64183   2.64960
 Alpha virt. eigenvalues --    2.66762   2.68704   2.69186   2.69898   2.70670
 Alpha virt. eigenvalues --    2.70804   2.70863   2.71311   2.71665   2.72772
 Alpha virt. eigenvalues --    2.74034   2.75114   2.75888   2.76281   2.76633
 Alpha virt. eigenvalues --    2.76777   2.76895   2.79143   2.80860   2.82668
 Alpha virt. eigenvalues --    2.83035   2.83907   2.84508   2.85256   2.85702
 Alpha virt. eigenvalues --    2.86054   2.86147   2.87668   2.89271   2.90007
 Alpha virt. eigenvalues --    2.90092   2.93962   2.94433   2.94886   2.94978
 Alpha virt. eigenvalues --    2.96087   2.96384   2.96689   2.97604   2.97737
 Alpha virt. eigenvalues --    2.98160   2.99656   3.00708   3.01089   3.05276
 Alpha virt. eigenvalues --    3.06299   3.06758   3.09116   3.10267   3.10938
 Alpha virt. eigenvalues --    3.12190   3.13503   3.18857   3.19915   3.22068
 Alpha virt. eigenvalues --    3.22724   3.29360   3.30201   3.32109   3.32185
 Alpha virt. eigenvalues --    3.32948   3.34410   3.36510   3.36718   3.37315
 Alpha virt. eigenvalues --    3.38534   3.38946   3.41504   3.41864   3.42071
 Alpha virt. eigenvalues --    3.43822   3.44109   3.44499   3.46588   3.52005
 Alpha virt. eigenvalues --    3.52042   3.54943   3.55004   3.55312   3.55840
 Alpha virt. eigenvalues --    3.57842   3.59113   3.59243   3.62765   3.63454
 Alpha virt. eigenvalues --    3.63507   3.84187   3.86949   4.24669   4.30882
 Alpha virt. eigenvalues --    4.31279   4.31691   4.33574   4.34172   4.35183
 Alpha virt. eigenvalues --    4.36475   4.38593   4.40127   4.40624   4.41253
 Alpha virt. eigenvalues --    4.43160   4.44580   4.47623   4.50588   4.51373
 Alpha virt. eigenvalues --    4.51875   4.52773   4.54445   4.58625   4.61087
 Alpha virt. eigenvalues --    4.61520   4.63708   4.68407   4.75211   4.75595
 Alpha virt. eigenvalues --    4.77591   4.87492   4.89768   4.98526   5.03139
          Condensed to atoms (all electrons):
 Mulliken atomic charges:
              1
     1  N   -0.416721
     2  C    0.430260
     3  C    0.245190
     4  C   -0.140009
     5  C   -0.160506
     6  C    0.396993
     7  C    0.549240
     8  N   -0.371067
     9  O   -0.518545
    10  O   -0.516698
    11  H    0.293202
    12  H    0.297983
    13  C   -0.343031
    14  C    0.380986
    15  C   -0.248579
    16  H    0.179992
    17  C    0.184466
    18  C   -0.039892
    19  H    0.091625
    20  C   -0.228283
    21  H    0.135616
    22  H    0.113926
    23  O   -0.315473
    24  C    0.301437
    25  H    0.119462
    26  H    0.143240
    27  C   -0.827056
    28  H    0.140833
    29  H    0.152127
    30  C    0.000359
    31  H    0.165527
    32  H    0.134938
    33  C   -0.660041
    34  H    0.142118
    35  H    0.145394
    36  H    0.146275
    37  C   -0.310180
    38  C    0.291293
    39  C    0.191627
    40  H    0.097905
    41  C    0.125549
    42  C   -0.026189
    43  H    0.185230
    44  C   -0.705411
    45  H    0.139729
    46  H    0.109854
    47  O   -0.315058
    48  C    0.290647
    49  H    0.117914
    50  H    0.140718
    51  C   -0.807765
    52  H    0.139315
    53  H    0.153762
    54  C    0.005909
    55  H    0.167399
    56  H    0.133634
    57  C   -0.664941
    58  H    0.141469
    59  H    0.145547
    60  H    0.146754
 Sum of Mulliken atomic charges =   0.00000
 Mulliken charges with hydrogens summed into heavy atoms:
              1
     1  N   -0.118738
     2  C    0.430260
     3  C    0.245190
     4  C   -0.140009
     5  C   -0.160506
     6  C    0.396993
     7  C    0.549240
     8  N   -0.077865
     9  O   -0.518545
    10  O   -0.516698
    13  C   -0.343031
    14  C    0.494912
    15  C   -0.068586
    17  C    0.184466
    18  C    0.051733
    20  C   -0.092667
    23  O   -0.315473
    24  C    0.564139
    27  C   -0.534096
    30  C    0.300824
    33  C   -0.226254
    37  C   -0.310180
    38  C    0.401147
    39  C    0.289531
    41  C    0.125549
    42  C    0.159042
    44  C   -0.565682
    47  O   -0.315058
    48  C    0.549279
    51  C   -0.514688
    54  C    0.306941
    57  C   -0.231171
 Sum of Mulliken charges with hydrogens summed into heavy atoms =   0.00000
 Electronic spatial extent (au):  <R**2>=          33869.0632
 Charge=              0.0000 electrons
 Dipole moment (field-independent basis, Debye):
    X=             -0.0951    Y=             -1.8664    Z=              0.0341  Tot=              1.8692
 Quadrupole moment (field-independent basis, Debye-Ang):
   XX=           -166.0485   YY=           -184.1264   ZZ=           -195.5520
   XY=            -18.1555   XZ=              9.7125   YZ=              0.0841
 Traceless Quadrupole moment (field-independent basis, Debye-Ang):
   XX=             15.8605   YY=             -2.2175   ZZ=            -13.6430
   XY=            -18.1555   XZ=              9.7125   YZ=              0.0841
 Octapole moment (field-independent basis, Debye-Ang**2):
  XXX=             37.8035  YYY=              6.7961  ZZZ=              0.9911  XYY=             -3.8356
  XXY=           -135.9043  XXZ=              0.7213  XZZ=              0.3466  YZZ=             -0.8820
  YYZ=              0.3733  XYZ=             -4.6705
 Hexadecapole moment (field-independent basis, Debye-Ang**3):
 XXXX=         -43035.4997 YYYY=          -1960.1409 ZZZZ=           -449.8362 XXXY=           -130.3613
 XXXZ=            699.2412 YYYX=           -204.3180 YYYZ=              5.8500 ZZZX=              7.9614
 ZZZY=              0.1562 XXYY=          -7416.8013 XXZZ=          -7482.5686 YYZZ=           -431.1083
 XXYZ=              5.4439 YYXZ=              2.9859 ZZXY=             26.8003
 N-N= 2.829640458217D+03 E-N=-8.953797872161D+03  KE= 1.405040243730D+03
 Calling FoFJK, ICntrl=      2127 FMM=T ISym2X=0 I1Cent= 0 IOpClX= 0 NMat=1 NMatS=1 NMatT=0.
 ***** Axes restored to original set *****
 -------------------------------------------------------------------
 Center     Atomic                   Forces (Hartrees/Bohr)
 Number     Number              X              Y              Z
 -------------------------------------------------------------------
      1        7          -0.019105510    0.040896846    0.001819986
      2        6           0.006125204    0.025628336   -0.001124950
      3        6          -0.007523013   -0.064969075    0.000209590
      4        6          -0.081149342   -0.046318093    0.006139976
      5        6           0.076596656    0.050697568   -0.005672811
      6        6           0.012659871    0.060894125   -0.000505730
      7        6          -0.002917506   -0.016943758    0.000517313
      8        7           0.016807766   -0.043569298   -0.001896759
      9        8          -0.018466080   -0.056192171    0.001328517
     10        8           0.004431834    0.065114027   -0.000039777
     11        1          -0.008830589   -0.000721541    0.000458035
     12        1           0.008062171    0.000154246   -0.000556552
     13        6           0.004868184    0.024609743   -0.004056256
     14        6          -0.012879107   -0.015917072    0.000950133
     15        6          -0.007221406    0.018028374   -0.000418659
     16        1           0.007084841   -0.002985868   -0.000506245
     17        6          -0.015785488   -0.046598354    0.002378901
     18        6           0.012796886    0.013770060   -0.002459299
     19        1          -0.010806454   -0.000329488    0.000837060
     20        6           0.003005738   -0.006696353   -0.001391008
     21        1          -0.007573133    0.007653422    0.000743812
     22        1           0.006172976   -0.004087777   -0.000946446
     23        8          -0.007822003   -0.043459580    0.006711870
     24        6          -0.004768503    0.035454874    0.001798843
     25        1           0.014345852   -0.000913006   -0.008225683
     26        1           0.001759149   -0.009751077    0.016681732
     27        6          -0.009361086   -0.026347181   -0.030718807
     28        1           0.015046790    0.003470326    0.009218317
     29        1          -0.011779456    0.007489280    0.012025336
     30        6           0.001404783    0.024669418    0.024999300
     31        1          -0.012143065   -0.006309218   -0.007537509
     32        1           0.012350030   -0.009187437   -0.011891251
     33        6          -0.001523587   -0.023631693   -0.005823066
     34        1           0.013917313    0.008253297    0.005787376
     35        1          -0.000850297    0.010358463   -0.014750022
     36        1          -0.011356795    0.009754613    0.008452928
     37        6          -0.003779010   -0.024297733    0.001425247
     38        6          -0.006582595    0.016879865    0.000775352
     39        6          -0.017256472   -0.013604746    0.001058534
     40        1           0.013124417    0.000592560   -0.000856777
     41        6           0.024677236    0.042039445   -0.001674819
     42        6           0.007479807   -0.022535108    0.000109762
     43        1          -0.003419513   -0.004226716    0.000045577
     44        6           0.010840077    0.001843068    0.000927297
     45        1          -0.008011151   -0.003751185    0.000086114
     46        1           0.008159604   -0.002578149   -0.000176886
     47        8           0.009050122    0.042612912   -0.004191814
     48        6          -0.018214726   -0.026320984   -0.000358165
     49        1           0.016511610   -0.002785444    0.006647213
     50        1           0.002743327    0.009821625   -0.016965059
     51        6           0.006424150    0.025782981    0.033035093
     52        1           0.011048354   -0.007684642   -0.011614617
     53        1          -0.015260244   -0.001339884   -0.010238505
     54        6          -0.011287777   -0.020514776   -0.026437942
     55        1          -0.007881603    0.010027899    0.009982089
     56        1           0.016447328    0.002855830    0.010067750
     57        6           0.007887124    0.022370458    0.006178565
     58        1           0.008928445   -0.012525769   -0.008300374
     59        1          -0.002610255   -0.010720169    0.014418038
     60        1          -0.014591875   -0.003910317   -0.006479868
 -------------------------------------------------------------------
 Cartesian Forces:  Max     0.081149342 RMS     0.019317268

 GradGradGradGradGradGradGradGradGradGradGradGradGradGradGradGradGradGrad
 Berny optimization.
 Internal  Forces:  Max     0.066676548 RMS     0.011175379
 Search for a local minimum.
 Step number   1 out of a maximum of  341
 All quantities printed in internal units (Hartrees-Bohrs-Radians)
 Mixed Optimization -- RFO/linear search
 Second derivative matrix not updated -- first step.
 ITU=  0
     Eigenvalues ---    0.00230   0.00231   0.00239   0.00249   0.00252
     Eigenvalues ---    0.00258   0.00268   0.00280   0.00580   0.00660
     Eigenvalues ---    0.01100   0.01172   0.01250   0.01260   0.01304
     Eigenvalues ---    0.01307   0.01311   0.01337   0.01506   0.01513
     Eigenvalues ---    0.01565   0.01678   0.01776   0.01896   0.01936
     Eigenvalues ---    0.01955   0.01980   0.02002   0.02013   0.02051
     Eigenvalues ---    0.02060   0.02061   0.02064   0.02078   0.02087
     Eigenvalues ---    0.02088   0.02093   0.02106   0.02107   0.02119
     Eigenvalues ---    0.02461   0.03817   0.03870   0.03870   0.03881
     Eigenvalues ---    0.04894   0.04912   0.04919   0.04923   0.05168
     Eigenvalues ---    0.05191   0.05730   0.05734   0.05735   0.05736
     Eigenvalues ---    0.05811   0.05842   0.05862   0.07630   0.07632
     Eigenvalues ---    0.07671   0.07701   0.09146   0.11210   0.11230
     Eigenvalues ---    0.11679   0.11679   0.11709   0.11737   0.13681
     Eigenvalues ---    0.13694   0.16000   0.16000   0.16000   0.16000
     Eigenvalues ---    0.16000   0.16000   0.16000   0.16000   0.16000
     Eigenvalues ---    0.16000   0.16000   0.16000   0.16000   0.16000
     Eigenvalues ---    0.16035   0.16085   0.21939   0.21944   0.21947
     Eigenvalues ---    0.21956   0.22001   0.22002   0.22065   0.22067
     Eigenvalues ---    0.22992   0.22997   0.23774   0.23845   0.24017
     Eigenvalues ---    0.24021   0.24999   0.25000   0.25000   0.25000
     Eigenvalues ---    0.25000   0.25000   0.25000   0.25000   0.25000
     Eigenvalues ---    0.25000   0.28205   0.28436   0.28444   0.28603
     Eigenvalues ---    0.28620   0.28661   0.28729   0.28807   0.30173
     Eigenvalues ---    0.30704   0.32043   0.33194   0.36637   0.36859
     Eigenvalues ---    0.36886   0.37015   0.37037   0.37071   0.37077
     Eigenvalues ---    0.37090   0.37114   0.37133   0.37142   0.37168
     Eigenvalues ---    0.37170   0.37177   0.37185   0.37216   0.37237
     Eigenvalues ---    0.37240   0.37256   0.37266   0.37278   0.37321
     Eigenvalues ---    0.37326   0.37335   0.37343   0.37398   0.40612
     Eigenvalues ---    0.40959   0.41088   0.41118   0.41274   0.41415
     Eigenvalues ---    0.41452   0.41640   0.44183   0.44503   0.45218
     Eigenvalues ---    0.45250   0.45373   0.45374   0.45549   0.45640
     Eigenvalues ---    0.45721   0.45947   0.47392   0.47556   0.47710
     Eigenvalues ---    0.48726   0.53229   0.79967   0.80560
 RFO step:  Lambda=-9.91376074D-02 EMin= 2.30000000D-03
 Linear search not attempted -- first point.
 Maximum step size (   0.300) exceeded in Quadratic search.
    -- Step size scaled by   0.590
 Iteration  1 RMS(Cart)=  0.15824753 RMS(Int)=  0.00384983
 Iteration  2 RMS(Cart)=  0.02131800 RMS(Int)=  0.00008354
 Iteration  3 RMS(Cart)=  0.00022829 RMS(Int)=  0.00006315
 Iteration  4 RMS(Cart)=  0.00000002 RMS(Int)=  0.00006315
 Variable       Old X    -DE/DX   Delta X   Delta X   Delta X     New X
                                 (Linear)    (Quad)   (Total)
    R1        2.81330  -0.02459   0.00000  -0.04068  -0.04075   2.77254
    R2        2.61114   0.00795   0.00000   0.00479   0.00490   2.61604
    R3        1.89115   0.00714   0.00000   0.00733   0.00733   1.89848
    R4        2.85211  -0.03034   0.00000  -0.04164  -0.04175   2.81036
    R5        2.37882  -0.05067   0.00000  -0.03345  -0.03347   2.34536
    R6        2.57488   0.00679   0.00000   0.01122   0.01144   2.58632
    R7        2.91521  -0.04745   0.00000  -0.07141  -0.07136   2.84385
    R8        2.52950   0.06185   0.00000   0.06348   0.06348   2.59298
    R9        2.84470  -0.03274   0.00000  -0.04400  -0.04411   2.80059
   R10        2.58810   0.00169   0.00000   0.00584   0.00606   2.59416
   R11        2.60571   0.01347   0.00000   0.01019   0.01029   2.61599
   R12        2.90994  -0.04491   0.00000  -0.06731  -0.06725   2.84269
   R13        2.79810  -0.02502   0.00000  -0.03999  -0.04008   2.75802
   R14        2.37572  -0.04368   0.00000  -0.02871  -0.02873   2.34699
   R15        1.88949   0.00759   0.00000   0.00777   0.00777   1.89726
   R16        3.56187   0.01290   0.00000   0.04488   0.04481   3.60668
   R17        3.07565   0.03332   0.00000   0.10079   0.10072   3.17636
   R18        2.64975   0.00618   0.00000   0.00641   0.00640   2.65614
   R19        2.64598  -0.00156   0.00000  -0.00200  -0.00201   2.64397
   R20        2.70062  -0.02035   0.00000  -0.02352  -0.02352   2.67710
   R21        2.65218  -0.00748   0.00000  -0.00789  -0.00789   2.64429
   R22        2.02490   0.00401   0.00000   0.00504   0.00504   2.02994
   R23        2.02206   0.01953   0.00000   0.02285   0.02278   2.04485
   R24        2.64634   0.00067   0.00000   0.00083   0.00083   2.64717
   R25        2.64731   0.00367   0.00000   0.00411   0.00412   2.65143
   R26        2.02411   0.01001   0.00000   0.01257   0.01257   2.03667
   R27        2.64410  -0.00781   0.00000  -0.00841  -0.00841   2.63569
   R28        2.02280   0.01064   0.00000   0.01334   0.01334   2.03614
   R29        2.69627   0.01245   0.00000   0.01431   0.01431   2.71058
   R30        2.02057   0.01542   0.00000   0.01925   0.01925   2.03983
   R31        2.02290   0.01903   0.00000   0.02384   0.02384   2.04674
   R32        2.90407  -0.00167   0.00000  -0.00254  -0.00254   2.90153
   R33        2.02269   0.01775   0.00000   0.02223   0.02223   2.04492
   R34        2.02162   0.01825   0.00000   0.02282   0.02282   2.04444
   R35        2.90571   0.00513   0.00000   0.00783   0.00783   2.91354
   R36        2.02430   0.01533   0.00000   0.01925   0.01925   2.04355
   R37        2.02045   0.01925   0.00000   0.02404   0.02404   2.04448
   R38        2.90716   0.00479   0.00000   0.00733   0.00733   2.91449
   R39        2.02439   0.01676   0.00000   0.02104   0.02104   2.04543
   R40        2.02222   0.01737   0.00000   0.02174   0.02174   2.04396
   R41        2.02333   0.01685   0.00000   0.02112   0.02112   2.04445
   R42        2.66107  -0.00177   0.00000  -0.00266  -0.00267   2.65840
   R43        2.64538  -0.00115   0.00000  -0.00155  -0.00155   2.64383
   R44        2.70731  -0.02908   0.00000  -0.03396  -0.03396   2.67335
   R45        2.66129  -0.01302   0.00000  -0.01457  -0.01458   2.64671
   R46        2.02147   0.00778   0.00000   0.00972   0.00972   2.03119
   R47        2.01950   0.01268   0.00000   0.01581   0.01581   2.03531
   R48        2.65183   0.00025   0.00000   0.00060   0.00061   2.65244
   R49        2.64230   0.00735   0.00000   0.00796   0.00795   2.65026
   R50        2.02461   0.03214   0.00000   0.03827   0.03820   2.06280
   R51        2.64039  -0.00447   0.00000  -0.00432  -0.00431   2.63608
   R52        2.02759   0.00876   0.00000   0.01105   0.01105   2.03864
   R53        2.70101   0.00815   0.00000   0.00943   0.00943   2.71044
   R54        2.02065   0.01760   0.00000   0.02199   0.02199   2.04264
   R55        2.02191   0.01947   0.00000   0.02436   0.02436   2.04627
   R56        2.91179  -0.00417   0.00000  -0.00642  -0.00642   2.90537
   R57        2.02346   0.01752   0.00000   0.02197   0.02197   2.04544
   R58        2.02129   0.01824   0.00000   0.02280   0.02280   2.04409
   R59        2.90803   0.00417   0.00000   0.00639   0.00639   2.91441
   R60        2.02294   0.01587   0.00000   0.01988   0.01988   2.04282
   R61        2.02033   0.01929   0.00000   0.02408   0.02408   2.04441
   R62        2.90839   0.00445   0.00000   0.00682   0.00682   2.91520
   R63        2.02375   0.01702   0.00000   0.02135   0.02135   2.04510
   R64        2.02187   0.01747   0.00000   0.02186   0.02186   2.04373
   R65        2.02523   0.01610   0.00000   0.02024   0.02024   2.04547
    A1        1.89534   0.02235   0.00000   0.03259   0.03272   1.92806
    A2        2.19121  -0.01476   0.00000  -0.02445  -0.02452   2.16670
    A3        2.19663  -0.00759   0.00000  -0.00814  -0.00820   2.18843
    A4        1.78689   0.00178   0.00000  -0.00183  -0.00203   1.78486
    A5        2.24782  -0.01499   0.00000  -0.02557  -0.02555   2.22226
    A6        2.24848   0.01321   0.00000   0.02741   0.02759   2.27607
    A7        1.89364  -0.01079   0.00000  -0.01747  -0.01725   1.87639
    A8        2.22580   0.00098   0.00000  -0.00607  -0.00636   2.21943
    A9        2.16375   0.00982   0.00000   0.02354   0.02362   2.18736
   A10        1.98096  -0.01932   0.00000  -0.02583  -0.02569   1.95528
   A11        2.42640   0.01211   0.00000   0.01249   0.01262   2.43902
   A12        1.87582   0.00720   0.00000   0.01334   0.01307   1.88889
   A13        1.86793   0.00598   0.00000   0.01255   0.01226   1.88019
   A14        2.44540   0.01304   0.00000   0.01266   0.01278   2.45818
   A15        1.96985  -0.01902   0.00000  -0.02520  -0.02504   1.94481
[...]
 ! D78   D(25,24,27,29)        177.951          calculate D2E/DX2 analytically  !
 ! D79   D(25,24,27,30)         54.6803         calculate D2E/DX2 analytically  !
 ! D80   D(26,24,27,28)         53.2397         calculate D2E/DX2 analytically  !
 ! D81   D(26,24,27,29)        -61.6534         calculate D2E/DX2 analytically  !
 ! D82   D(26,24,27,30)        175.0759         calculate D2E/DX2 analytically  !
 ! D83   D(24,27,30,31)         58.3745         calculate D2E/DX2 analytically  !
 ! D84   D(24,27,30,32)        -57.4957         calculate D2E/DX2 analytically  !
 ! D85   D(24,27,30,33)       -179.4042         calculate D2E/DX2 analytically  !
 ! D86   D(28,27,30,31)        178.8863         calculate D2E/DX2 analytically  !
 ! D87   D(28,27,30,32)         63.0161         calculate D2E/DX2 analytically  !
 ! D88   D(28,27,30,33)        -58.8924         calculate D2E/DX2 analytically  !
 ! D89   D(29,27,30,31)        -64.1611         calculate D2E/DX2 analytically  !
 ! D90   D(29,27,30,32)        179.9687         calculate D2E/DX2 analytically  !
 ! D91   D(29,27,30,33)         58.0602         calculate D2E/DX2 analytically  !
 ! D92   D(27,30,33,34)         59.7828         calculate D2E/DX2 analytically  !
 ! D93   D(27,30,33,35)        179.9016         calculate D2E/DX2 analytically  !
 ! D94   D(27,30,33,36)        -60.1666         calculate D2E/DX2 analytically  !
 ! D95   D(31,30,33,34)       -178.3278         calculate D2E/DX2 analytically  !
 ! D96   D(31,30,33,35)        -58.209          calculate D2E/DX2 analytically  !
 ! D97   D(31,30,33,36)         61.7229         calculate D2E/DX2 analytically  !
 ! D98   D(32,30,33,34)        -61.8711         calculate D2E/DX2 analytically  !
 ! D99   D(32,30,33,35)         58.2478         calculate D2E/DX2 analytically  !
 ! D100  D(32,30,33,36)        178.1796         calculate D2E/DX2 analytically  !
 ! D101  D(44,37,38,39)          0.0477         calculate D2E/DX2 analytically  !
 ! D102  D(44,37,38,46)       -179.9353         calculate D2E/DX2 analytically  !
 ! D103  D(47,37,38,39)        179.968          calculate D2E/DX2 analytically  !
 ! D104  D(47,37,38,46)         -0.015          calculate D2E/DX2 analytically  !
 ! D105  D(38,37,44,42)         -0.0667         calculate D2E/DX2 analytically  !
 ! D106  D(38,37,44,45)        179.939          calculate D2E/DX2 analytically  !
 ! D107  D(47,37,44,42)       -179.9938         calculate D2E/DX2 analytically  !
 ! D108  D(47,37,44,45)          0.012          calculate D2E/DX2 analytically  !
 ! D109  D(38,37,47,48)          0.4281         calculate D2E/DX2 analytically  !
 ! D110  D(44,37,47,48)       -179.6491         calculate D2E/DX2 analytically  !
 ! D111  D(37,38,39,40)       -179.9984         calculate D2E/DX2 analytically  !
 ! D112  D(37,38,39,41)         -0.0008         calculate D2E/DX2 analytically  !
 ! D113  D(46,38,39,40)         -0.015          calculate D2E/DX2 analytically  !
 ! D114  D(46,38,39,41)        179.9826         calculate D2E/DX2 analytically  !
 ! D115  D(38,39,41,3)         179.9897         calculate D2E/DX2 analytically  !
 ! D116  D(38,39,41,42)         -0.0274         calculate D2E/DX2 analytically  !
 ! D117  D(40,39,41,3)          -0.0128         calculate D2E/DX2 analytically  !
 ! D118  D(40,39,41,42)        179.9701         calculate D2E/DX2 analytically  !
 ! D119  D(3,41,42,43)          -0.0353         calculate D2E/DX2 analytically  !
 ! D120  D(3,41,42,44)         179.9918         calculate D2E/DX2 analytically  !
 ! D121  D(39,41,42,43)        179.9815         calculate D2E/DX2 analytically  !
 ! D122  D(39,41,42,44)          0.0086         calculate D2E/DX2 analytically  !
 ! D123  D(41,42,44,37)          0.0384         calculate D2E/DX2 analytically  !
 ! D124  D(41,42,44,45)       -179.9675         calculate D2E/DX2 analytically  !
 ! D125  D(43,42,44,37)       -179.9345         calculate D2E/DX2 analytically  !
 ! D126  D(43,42,44,45)          0.0597         calculate D2E/DX2 analytically  !
 ! D127  D(37,47,48,49)         58.6704         calculate D2E/DX2 analytically  !
 ! D128  D(37,47,48,50)        -59.8971         calculate D2E/DX2 analytically  !
 ! D129  D(37,47,48,51)        179.4393         calculate D2E/DX2 analytically  !
 ! D130  D(47,48,51,52)        173.5844         calculate D2E/DX2 analytically  !
 ! D131  D(47,48,51,53)         58.6643         calculate D2E/DX2 analytically  !
 ! D132  D(47,48,51,54)        -64.5725         calculate D2E/DX2 analytically  !
 ! D133  D(49,48,51,52)        -66.5466         calculate D2E/DX2 analytically  !
 ! D134  D(49,48,51,53)        178.5332         calculate D2E/DX2 analytically  !
 ! D135  D(49,48,51,54)         55.2964         calculate D2E/DX2 analytically  !
 ! D136  D(50,48,51,52)         53.7803         calculate D2E/DX2 analytically  !
 ! D137  D(50,48,51,53)        -61.1398         calculate D2E/DX2 analytically  !
 ! D138  D(50,48,51,54)        175.6234         calculate D2E/DX2 analytically  !
 ! D139  D(48,51,54,55)         58.7784         calculate D2E/DX2 analytically  !
 ! D140  D(48,51,54,56)        -57.0988         calculate D2E/DX2 analytically  !
 ! D141  D(48,51,54,57)       -179.004          calculate D2E/DX2 analytically  !
 ! D142  D(52,51,54,55)        179.2878         calculate D2E/DX2 analytically  !
 ! D143  D(52,51,54,56)         63.4105         calculate D2E/DX2 analytically  !
 ! D144  D(52,51,54,57)        -58.4947         calculate D2E/DX2 analytically  !
 ! D145  D(53,51,54,55)        -63.7378         calculate D2E/DX2 analytically  !
 ! D146  D(53,51,54,56)       -179.6151         calculate D2E/DX2 analytically  !
 ! D147  D(53,51,54,57)         58.4797         calculate D2E/DX2 analytically  !
 ! D148  D(51,54,57,58)         59.8034         calculate D2E/DX2 analytically  !
 ! D149  D(51,54,57,59)        179.9168         calculate D2E/DX2 analytically  !
 ! D150  D(51,54,57,60)        -60.1702         calculate D2E/DX2 analytically  !
 ! D151  D(55,54,57,58)       -178.3374         calculate D2E/DX2 analytically  !
 ! D152  D(55,54,57,59)        -58.2239         calculate D2E/DX2 analytically  !
 ! D153  D(55,54,57,60)         61.6891         calculate D2E/DX2 analytically  !
 ! D154  D(56,54,57,58)        -61.8574         calculate D2E/DX2 analytically  !
 ! D155  D(56,54,57,59)         58.256          calculate D2E/DX2 analytically  !
 ! D156  D(56,54,57,60)        178.1691         calculate D2E/DX2 analytically  !
 --------------------------------------------------------------------------------
 Trust Radius=3.00D-01 FncErr=1.00D-07 GrdErr=1.00D-07
 Number of steps in this run=      2 maximum allowed number of steps=      2.
 GradGradGradGradGradGradGradGradGradGradGradGradGradGradGradGradGradGrad

 Stoichiometry    C26H28N2O4
 Framework group  C1[X(C26H28N2O4)]
 Deg. of freedom   174
 Full point group                 C1      NOp   1
 Largest Abelian subgroup         C1      NOp   1
 Largest concise Abelian subgroup C1      NOp   1
                         Standard orientation:                         
 ---------------------------------------------------------------------
 Center     Atomic      Atomic             Coordinates (Angstroms)
 Number     Number       Type             X           Y           Z
 ---------------------------------------------------------------------
      1          7           0       -0.985339   -1.777727    0.005429
      2          6           0        0.426263   -1.671921    0.073414
      3          6           0       -1.632464   -0.546818   -0.071288
      4          6           0       -0.630663    0.414216   -0.055247
      5          6           0        0.647490   -0.234893    0.033332
      6          6           0        1.649867    0.726007    0.052240
      7          6           0       -0.408122    1.852288   -0.093915
      8          7           0        1.004380    1.956958   -0.023651
      9          8           0        1.174004   -2.646388    0.145672
     10          8           0       -1.154015    2.826845   -0.167030
     11          1           0        1.451772    2.860640   -0.035039
     12          1           0       -1.431635   -2.681839    0.015015
     13          6           0        5.900318    0.312846    0.290971
     14          6           0        5.072106   -0.820588    0.283075
     15          6           0        3.689703   -0.673108    0.204715
     16          1           0        3.060518   -1.558980    0.199503
     17          6           0        3.093980    0.602405    0.132463
     18          6           0        3.945183    1.731219    0.142165
     19          1           0        3.537958    2.736363    0.089784
     20          6           0        5.321124    1.592589    0.219797
     21          1           0        5.972427    2.460198    0.228049
     22          1           0        5.489106   -1.818671    0.337404
     23          8           0        7.256105    0.280316    0.365303
     24          6           0        7.925696   -0.987014    0.447236
     25          1           0        7.671125   -1.590612   -0.435283
     26          1           0        7.582687   -1.520401    1.343544
     27          6           0        9.424638   -0.730272    0.512871
     28          1           0        9.913611   -1.695767    0.702712
     29          1           0        9.634763   -0.095922    1.383862
     30          6           0       10.010906   -0.093867   -0.754410
     31          1           0        9.503403    0.858330   -0.946287
     32          1           0        9.792406   -0.740963   -1.615448
     33          6           0       11.523099    0.136040   -0.656953
     34          1           0       12.060643   -0.805881   -0.494293
     35          1           0       11.915794    0.588775   -1.573493
     36          1           0       11.768705    0.805688    0.175714
     37          6           0       -5.885437   -0.149435   -0.299388
     38          6           0       -5.307668   -1.426245   -0.222628
     39          6           0       -3.921484   -1.551015   -0.148528
     40          1           0       -3.510739   -2.554490   -0.090398
     41          6           0       -3.077253   -0.425556   -0.148414
     42          6           0       -3.679373    0.854130   -0.227119
     43          1           0       -3.052967    1.741810   -0.228714
     44          6           0       -5.055313    0.986110   -0.301365
     45          1           0       -5.516472    1.966388   -0.362180
     46          1           0       -5.919451   -2.319772   -0.220077
     47          8           0       -7.220620    0.089059   -0.375818
     48          6           0       -8.135606   -1.015675   -0.371637
     49          1           0       -7.996654   -1.599692    0.549395
     50          1           0       -7.923638   -1.666114   -1.230884
     51          6           0       -9.551796   -0.463058   -0.451890
     52          1           0      -10.230929   -1.319458   -0.564801
     53          1           0       -9.644797    0.134076   -1.368310
     54          6           0       -9.971069    0.373283    0.764538
     55          1           0       -9.280423    1.216708    0.875493
     56          1           0       -9.865754   -0.235930    1.673255
     57          6           0      -11.409463    0.891923    0.659363
     58          1           0      -12.126708    0.066424    0.576731
     59          1           0      -11.683362    1.483360    1.539333
     60          1           0      -11.536449    1.530904   -0.222448
 ---------------------------------------------------------------------
 Rotational constants (GHZ):      0.6488835      0.0311091      0.0299262
 Standard basis: 6-31+G(d,p) (6D, 7F)
 There are   748 symmetry adapted basis functions of A   symmetry.
 Integral buffers will be    262144 words long.
 Raffenetti 2 integral format.
 Two-electron integral symmetry is turned on.
   748 basis functions,  1220 primitive gaussians,   748 cartesian basis functions
   115 alpha electrons      115 beta electrons
       nuclear repulsion energy      2817.8922802520 Hartrees.
 NAtoms=   60 NActive=   60 NUniq=   60 SFac= 1.00D+00 NAtFMM=   50 NAOKFM=T Big=T
 One-electron integrals computed using PRISM.
 NBasis=   748 RedAO= T  NBF=   748
 NBsUse=   739 1.00D-06 NBFU=   739
 Initial guess read from the checkpoint file:  G:\Meu Drive\POS-DOC-IME\SUBSTITUINTES-DOADORES\DPP-substituido\DPP-SUB-3-OPT-FREQ.chk
 B after Tr=     0.000000    0.000000    0.000000
         Rot=    1.000000    0.000000    0.000000    0.000000 Ang=   0.00 deg.
 Initial guess orbital symmetries:
       Occupied  (A) (A) (A) (A) (A) (A) (A) (A) (A) (A) (A) (A)
                 (A) (A) (A) (A) (A) (A) (A) (A) (A) (A) (A) (A)
                 (A) (A) (A) (A) (A) (A) (A) (A) (A) (A) (A) (A)
                 (A) (A) (A) (A) (A) (A) (A) (A) (A) (A) (A) (A)
                 (A) (A) (A) (A) (A) (A) (A) (A) (A) (A) (A) (A)
                 (A) (A) (A) (A) (A) (A) (A) (A) (A) (A) (A) (A)
                 (A) (A) (A) (A) (A) (A) (A) (A) (A) (A) (A) (A)
                 (A) (A) (A) (A) (A) (A) (A) (A) (A) (A) (A) (A)
                 (A) (A) (A) (A) (A) (A) (A) (A) (A) (A) (A) (A)
                 (A) (A) (A) (A) (A) (A) (A)
       Virtual   (A) (A) (A) (A) (A) (A) (A) (A) (A) (A) (A) (A)
                 (A) (A) (A) (A) (A) (A) (A) (A) (A) (A) (A) (A)
                 (A) (A) (A) (A) (A) (A) (A) (A) (A) (A) (A) (A)
                 (A) (A) (A) (A) (A) (A) (A) (A) (A) (A) (A) (A)
                 (A) (A) (A) (A) (A) (A) (A) (A) (A) (A) (A) (A)
                 (A) (A) (A) (A) (A) (A) (A) (A) (A) (A) (A) (A)
                 (A) (A) (A) (A) (A) (A) (A) (A) (A) (A) (A) (A)
                 (A) (A) (A) (A) (A) (A) (A) (A) (A) (A) (A) (A)
                 (A) (A) (A) (A) (A) (A) (A) (A) (A) (A) (A) (A)
                 (A) (A) (A) (A) (A) (A) (A) (A) (A) (A) (A) (A)
                 (A) (A) (A) (A) (A) (A) (A) (A) (A) (A) (A) (A)
                 (A) (A) (A) (A) (A) (A) (A) (A) (A) (A) (A) (A)
                 (A) (A) (A) (A) (A) (A) (A) (A) (A) (A) (A) (A)
                 (A) (A) (A) (A) (A) (A) (A) (A) (A) (A) (A) (A)
                 (A) (A) (A) (A) (A) (A) (A) (A) (A) (A) (A) (A)
                 (A) (A) (A) (A) (A) (A) (A) (A) (A) (A) (A) (A)
                 (A) (A) (A) (A) (A) (A) (A) (A) (A) (A) (A) (A)
                 (A) (A) (A) (A) (A) (A) (A) (A) (A) (A) (A) (A)
                 (A) (A) (A) (A) (A) (A) (A) (A) (A) (A) (A) (A)
                 (A) (A) (A) (A) (A) (A) (A) (A) (A) (A) (A) (A)
                 (A) (A) (A) (A) (A) (A) (A) (A) (A) (A) (A) (A)
                 (A) (A) (A) (A) (A) (A) (A) (A) (A) (A) (A) (A)
                 (A) (A) (A) (A) (A) (A) (A) (A) (A) (A) (A) (A)
                 (A) (A) (A) (A) (A) (A) (A) (A) (A) (A) (A) (A)
                 (A) (A) (A) (A) (A) (A) (A) (A) (A) (A) (A) (A)
                 (A) (A) (A) (A) (A) (A) (A) (A) (A) (A) (A) (A)
                 (A) (A) (A) (A) (A) (A) (A) (A) (A) (A) (A) (A)
                 (A) (A) (A) (A) (A) (A) (A) (A) (A) (A) (A) (A)
                 (A) (A) (A) (A) (A) (A) (A) (A) (A) (A) (A) (A)
                 (A) (A) (A) (A) (A) (A) (A) (A) (A) (A) (A) (A)
                 (A) (A) (A) (A) (A) (A) (A) (A) (A) (A) (A) (A)
                 (A) (A) (A) (A) (A) (A) (A) (A) (A) (A) (A) (A)
                 (A) (A) (A) (A) (A) (A) (A) (A) (A) (A) (A) (A)
                 (A) (A) (A) (A) (A) (A) (A) (A) (A) (A) (A) (A)
                 (A) (A) (A) (A) (A) (A) (A) (A) (A) (A) (A) (A)
                 (A) (A) (A) (A) (A) (A) (A) (A) (A) (A) (A) (A)
                 (A) (A) (A) (A) (A) (A) (A) (A) (A) (A) (A) (A)
                 (A) (A) (A) (A) (A) (A) (A) (A) (A) (A) (A) (A)
                 (A) (A) (A) (A) (A) (A) (A) (A) (A) (A) (A) (A)
                 (A) (A) (A) (A) (A) (A) (A) (A) (A) (A) (A) (A)
                 (A) (A) (A) (A) (A) (A) (A) (A) (A) (A) (A) (A)
                 (A) (A) (A) (A) (A) (A) (A) (A) (A) (A) (A) (A)
                 (A) (A) (A) (A) (A) (A) (A) (A) (A) (A) (A) (A)
                 (A) (A) (A) (A) (A) (A) (A) (A) (A) (A) (A) (A)
                 (A) (A) (A) (A) (A) (A) (A) (A) (A) (A) (A) (A)
                 (A) (A) (A) (A) (A) (A) (A) (A) (A) (A) (A) (A)
                 (A) (A) (A) (A) (A) (A) (A) (A) (A) (A) (A) (A)
                 (A) (A) (A) (A) (A) (A) (A) (A) (A) (A) (A) (A)
                 (A) (A) (A) (A) (A) (A) (A) (A) (A) (A) (A) (A)
                 (A) (A) (A) (A) (A) (A) (A) (A) (A) (A) (A) (A)
                 (A) (A) (A) (A) (A) (A) (A) (A) (A) (A) (A) (A)
                 (A) (A) (A) (A) (A) (A) (A) (A) (A) (A) (A) (A)
 Requested convergence on RMS density matrix=1.00D-08 within 128 cycles.
 Requested convergence on MAX density matrix=1.00D-06.
 Requested convergence on             energy=1.00D-06.
 No special actions if energy rises.
 SCF Done:  E(RB3LYP) =  -1418.15284960     A.U. after    6 cycles
             Convg  =    0.2067D-08             -V/T =  2.0095
 Range of M.O.s used for correlation:     1   739
 NBasis=   748 NAE=   115 NBE=   115 NFC=     0 NFV=     0
 NROrb=    739 NOA=   115 NOB=   115 NVA=   624 NVB=   624

 **** Warning!!: The largest alpha MO coefficient is  0.11423954D+03


 **** Warning!!: The smallest alpha delta epsilon is  0.97754086D-01

 PrsmSu:  requested number of processors reduced to:   1 ShMem   1 Linda.
 PrsmSu:  requested number of processors reduced to:   1 ShMem   1 Linda.
 Symmetrizing basis deriv contribution to polar:
 IMax=3 JMax=2 DiffMx= 0.00D+00
 G2DrvN: will do     2 centers at a time, making   31 passes doing MaxLOS=2.
 Calling FoFCou, ICntrl=  3107 FMM=T I1Cent=   0 AccDes= 0.00D+00.
 Calling FoFCou, ICntrl=  3107 FMM=T I1Cent=   0 AccDes= 0.00D+00.
 Calling FoFCou, ICntrl=  3107 FMM=T I1Cent=   0 AccDes= 0.00D+00.
 Calling FoFCou, ICntrl=  3107 FMM=T I1Cent=   0 AccDes= 0.00D+00.
 Calling FoFCou, ICntrl=  3107 FMM=T I1Cent=   0 AccDes= 0.00D+00.
 Calling FoFCou, ICntrl=  3107 FMM=T I1Cent=   0 AccDes= 0.00D+00.
 Calling FoFCou, ICntrl=  3107 FMM=T I1Cent=   0 AccDes= 0.00D+00.
 Calling FoFCou, ICntrl=  3107 FMM=T I1Cent=   0 AccDes= 0.00D+00.
 Calling FoFCou, ICntrl=  3107 FMM=T I1Cent=   0 AccDes= 0.00D+00.
 Calling FoFCou, ICntrl=  3107 FMM=T I1Cent=   0 AccDes= 0.00D+00.
 Calling FoFCou, ICntrl=  3107 FMM=T I1Cent=   0 AccDes= 0.00D+00.
 Calling FoFCou, ICntrl=  3107 FMM=T I1Cent=   0 AccDes= 0.00D+00.
 Calling FoFCou, ICntrl=  3107 FMM=T I1Cent=   0 AccDes= 0.00D+00.
 Calling FoFCou, ICntrl=  3107 FMM=T I1Cent=   0 AccDes= 0.00D+00.
 Calling FoFCou, ICntrl=  3107 FMM=T I1Cent=   0 AccDes= 0.00D+00.
 Calling FoFCou, ICntrl=  3107 FMM=T I1Cent=   0 AccDes= 0.00D+00.
 Calling FoFCou, ICntrl=  3107 FMM=T I1Cent=   0 AccDes= 0.00D+00.
 Calling FoFCou, ICntrl=  3107 FMM=T I1Cent=   0 AccDes= 0.00D+00.
 Calling FoFCou, ICntrl=  3107 FMM=T I1Cent=   0 AccDes= 0.00D+00.
 Calling FoFCou, ICntrl=  3107 FMM=T I1Cent=   0 AccDes= 0.00D+00.
 Calling FoFCou, ICntrl=  3107 FMM=T I1Cent=   0 AccDes= 0.00D+00.
 Calling FoFCou, ICntrl=  3107 FMM=T I1Cent=   0 AccDes= 0.00D+00.
 Calling FoFCou, ICntrl=  3107 FMM=T I1Cent=   0 AccDes= 0.00D+00.
 Calling FoFCou, ICntrl=  3107 FMM=T I1Cent=   0 AccDes= 0.00D+00.
 Calling FoFCou, ICntrl=  3107 FMM=T I1Cent=   0 AccDes= 0.00D+00.
 Calling FoFCou, ICntrl=  3107 FMM=T I1Cent=   0 AccDes= 0.00D+00.
 Calling FoFCou, ICntrl=  3107 FMM=T I1Cent=   0 AccDes= 0.00D+00.
 Calling FoFCou, ICntrl=  3107 FMM=T I1Cent=   0 AccDes= 0.00D+00.
 Calling FoFCou, ICntrl=  3107 FMM=T I1Cent=   0 AccDes= 0.00D+00.
 Calling FoFCou, ICntrl=  3107 FMM=T I1Cent=   0 AccDes= 0.00D+00.
 Calling FoFCou, ICntrl=  3107 FMM=T I1Cent=   0 AccDes= 0.00D+00.
 FoFDir/FoFCou used for L=0 through L=2.
 End of G2Drv Frequency-dependent properties file   721 does not exist.
 End of G2Drv Frequency-dependent properties file   722 does not exist.
