 Entering Link 1 = C:\G09W\l1.exe PID=     22188.
  
 Copyright (c) 1988,1990,1992,1993,1995,1998,2003,2009,2010,
            Gaussian, Inc.  All Rights Reserved.
  
 This is part of the Gaussian(R) 09 program.  It is based on
 the Gaussian(R) 03 system (copyright 2003, Gaussian, Inc.),
 the Gaussian(R) 98 system (copyright 1998, Gaussian, Inc.),
 the Gaussian(R) 94 system (copyright 1995, Gaussian, Inc.),
 the Gaussian 92(TM) system (copyright 1992, Gaussian, Inc.),
 the Gaussian 90(TM) system (copyright 1990, Gaussian, Inc.),
 the Gaussian 88(TM) system (copyright 1988, Gaussian, Inc.),
 the Gaussian 86(TM) system (copyright 1986, Carnegie Mellon
 University), and the Gaussian 82(TM) system (copyright 1983,
 Carnegie Mellon University). Gaussian is a federally registered
 trademark of Gaussian, Inc.
  
 This software contains proprietary and confidential information,
 including trade secrets, belonging to Gaussian, Inc.
  
 This software is provided under written license and may be
 used, copied, transmitted, or stored only in accord with that
 written license.
  
 The following legend is applicable only to US Government
 contracts under FAR:
  
                    RESTRICTED RIGHTS LEGEND
  
 Use, reproduction and disclosure by the US Government is
 subject to restrictions as set forth in subparagraphs (a)
 and (c) of the Commercial Computer Software - Restricted
 Rights clause in FAR 52.227-19.
  
 Gaussian, Inc.
 340 Quinnipiac St., Bldg. 40, Wallingford CT 06492
  
  
 ---------------------------------------------------------------
 Warning -- This program may not be used in any manner that
 competes with the business of Gaussian, Inc. or will provide
 assistance to any competitor of Gaussian, Inc.  The licensee
 of this program is prohibited from giving any competitor of
 Gaussian, Inc. access to this program.  By using this program,
 the user acknowledges that Gaussian, Inc. is engaged in the
 business of creating and licensing software in the field of
 computational chemistry and represents and warrants to the
 licensee that it is not a competitor of Gaussian, Inc. and that
 it will not use this program in any manner prohibited above.
 ---------------------------------------------------------------
  

 Cite this work as:
 Gaussian 09, Revision B.01,
 M. J. Frisch, G. W. Trucks, H. B. Schlegel, G. E. Scuseria, 
 M. A. Robb, J. R. Cheeseman, G. Scalmani, V. Barone, B. Mennucci, 
 G. A. Petersson, H. Nakatsuji, M. Caricato, X. Li, H. P. Hratchian, 
 A. F. Izmaylov, J. Bloino, G. Zheng, J. L. Sonnenberg, M. Hada, 
 M. Ehara, K. Toyota, R. Fukuda, J. Hasegawa, M. Ishida, T. Nakajima, 
 Y. Honda, O. Kitao, H. Nakai, T. Vreven, J. A. Montgomery, Jr., 
 J. E. Peralta, F. Ogliaro, M. Bearpark, J. J. Heyd, E. Brothers, 
 K. N. Kudin, V. N. Staroverov, T. Keith, R. Kobayashi, J. Normand, 
 K. Raghavachari, A. Rendell, J. C. Burant, S. S. Iyengar, J. Tomasi, 
 M. Cossi, N. Rega, J. M. Millam, M. Klene, J. E. Knox, J. B. Cross, 
 V. Bakken, C. Adamo, J. Jaramillo, R. Gomperts, R. E. Stratmann, 
 O. Yazyev, A. J. Austin, R. Cammi, C. Pomelli, J. W. Ochterski, 
 R. L. Martin, K. Morokuma, V. G. Zakrzewski, G. A. Voth, 
 P. Salvador, J. J. Dannenberg, S. Dapprich, A. D. Daniels, 
 O. Farkas, J. B. Foresman, J. V. Ortiz, J. Cioslowski, 
 and D. J. Fox, Gaussian, Inc., Wallingford CT, 2010.
 
 ******************************************
 Gaussian 09:  IA32W-G09RevB.01 12-Aug-2010
                25-Jul-2023 
 ******************************************
 %nprocshared=6
 Will use up to    6 processors via shared memory.
 %chk=G:\Meu Drive\POS-DOC-IME\SUBSTITUINTES-DOADORES\DPP-substituido\DPP-SUB-3-A
 NION.chk
 ----------------------------------------------
 # opt freq b3lyp/6-31+g(d,p) geom=connectivity
 ----------------------------------------------
 1/14=-1,18=20,19=15,26=3,38=1,57=2/1,3;
 2/9=110,12=2,17=6,18=5,40=1/2;
 3/5=1,6=6,7=111,11=2,16=1,25=1,30=1,71=1,74=-5/1,2,3;
 4//1;
 5/5=2,38=5/2;
 6/7=2,8=2,9=2,10=2,28=1/1;
 7//1,2,3,16;
 1/14=-1,18=20,19=15/3(2);
 2/9=110/2;
 99//99;
 2/9=110/2;
 3/5=1,6=6,7=111,11=2,16=1,25=1,30=1,71=1,74=-5/1,2,3;
 4/5=5,16=3/1;
 5/5=2,38=5/2;
 7//1,2,3,16;
 1/14=-1,18=20,19=15/3(-5);
 2/9=110/2;
 6/7=2,8=2,9=2,10=2,19=2,28=1/1;
 99/9=1/99;
 -------
 Energy:
 -------
 Symbolic Z-matrix:
 Charge = -1 Multiplicity = 2
 N                    -0.98539  -1.77734   0.00557 
 C                     0.4262   -1.67163   0.07354 
 C                    -1.6325   -0.54639  -0.07092 
 C                    -0.63064   0.41459  -0.05474 
 C                     0.6475   -0.2346    0.03364 
 C                     1.64996   0.7262    0.05225 
 C                    -0.40798   1.85266  -0.09348 
 N                     1.00453   1.9572   -0.02357 
 O                     1.17388  -2.64613   0.14578 
 O                    -1.15379   2.82729  -0.1664 
 H                     1.45197   2.86087  -0.03461 
 H                    -1.43175  -2.68142   0.01518 
 C                     5.90043   0.3128    0.29005 
 C                     5.07215  -0.82057   0.28274 
 C                     3.68974  -0.67301   0.20469 
 H                     3.06049  -1.55884   0.19987 
 C                     3.09409   0.60253   0.13216 
 C                     3.94538   1.73128   0.1413 
 H                     3.53824   2.73644   0.08865 
 C                     5.32133   1.59256   0.21864 
 H                     5.9727    2.46013   0.22646 
 H                     5.48908  -1.81867   0.33732 
 O                     7.25627   0.28023   0.36391 
 C                     7.9258   -0.98706   0.44709 
 H                     7.67156  -1.59137  -0.43504 
 H                     7.58242  -1.51969   1.34371 
 C                     9.42473  -0.7303    0.513 
 H                     9.91363  -1.6957    0.70356 
 H                     9.63468  -0.09539   1.38362 
 C                     10.01135  -0.09475  -0.75456 
 H                     9.50394   0.85735  -0.94718 
 H                     9.79305  -0.7424   -1.61523 
 C                     11.52354   0.13515  -0.65685 
 H                     12.06099  -0.80669  -0.49341 
 H                     11.91651   0.58725  -1.5736 
 H                     11.76894   0.80535   0.17543 
 C                    -5.88552  -0.14922  -0.29874 
 C                    -5.30767  -1.42601  -0.22236 
 C                    -3.92147  -1.55069  -0.14836 
 H                    -3.51068  -2.55416  -0.09054 
 C                    -3.07731  -0.42517  -0.14797 
 C                    -3.67954   0.85448  -0.22631 
 H                    -3.05322   1.74221  -0.22775 
 C                    -5.0555    0.98638  -0.30046 
 H                    -5.51673   1.96664  -0.36103 
 H                    -5.91937  -2.31959  -0.22006 
 O                    -7.22075   0.08923  -0.37493 
 C                    -8.13561  -1.01562  -0.37197 
 H                    -7.99708  -1.60028   0.54872 
 H                    -7.92312  -1.66541  -1.23158 
 C                    -9.55184  -0.46313  -0.45248 
 H                    -10.23078  -1.31957  -0.56626 
 H                    -9.64459   0.13466  -1.3685 
 C                    -9.97177   0.37225   0.76439 
 H                    -9.28141   1.21579   0.87618 
 H                    -9.86662  -0.23757   1.67273 
 C                    -11.41029   0.89055   0.65905 
 H                    -12.12726   0.06489   0.57563 
 H                    -11.68467   1.48134   1.53931 
 H                    -11.53715   1.53007  -0.22239 
 

 GradGradGradGradGradGradGradGradGradGradGradGradGradGradGradGradGradGrad
 Berny optimization.
 Initialization pass.
                           ----------------------------
                           !    Initial Parameters    !
                           ! (Angstroms and Degrees)  !
 --------------------------                            --------------------------
 ! Name  Definition              Value          Derivative Info.                !
 --------------------------------------------------------------------------------
 ! R1    R(1,2)                  1.4172         estimate D2E/DX2                !
 ! R2    R(1,3)                  1.3928         estimate D2E/DX2                !
 ! R3    R(1,12)                 1.0083         estimate D2E/DX2                !
 ! R4    R(2,5)                  1.4545         estimate D2E/DX2                !
 ! R5    R(2,9)                  1.2304         estimate D2E/DX2                !
 ! R6    R(3,4)                  1.3883         estimate D2E/DX2                !
 ! R7    R(3,41)                 1.4519         estimate D2E/DX2                !
 ! R8    R(4,5)                  1.4363         estimate D2E/DX2                !
 ! R9    R(4,7)                  1.4557         estimate D2E/DX2                !
 ! R10   R(5,6)                  1.3887         estimate D2E/DX2                !
 ! R11   R(6,8)                  1.392          estimate D2E/DX2                !
 ! R12   R(6,17)                 1.4516         estimate D2E/DX2                !
 ! R13   R(7,8)                  1.4181         estimate D2E/DX2                !
 ! R14   R(7,10)                 1.2294         estimate D2E/DX2                !
 ! R15   R(8,11)                 1.0084         estimate D2E/DX2                !
 ! R16   R(13,14)                1.4038         estimate D2E/DX2                !
 ! R17   R(13,20)                1.4065         estimate D2E/DX2                !
 ! R18   R(13,23)                1.3582         estimate D2E/DX2                !
 ! R19   R(14,15)                1.3925         estimate D2E/DX2                !
 ! R20   R(14,22)                1.0831         estimate D2E/DX2                !
 ! R21   R(15,16)                1.0866         estimate D2E/DX2                !
 ! R22   R(15,17)                1.4096         estimate D2E/DX2                !
 ! R23   R(17,18)                1.4138         estimate D2E/DX2                !
 ! R24   R(18,19)                1.0858         estimate D2E/DX2                !
 ! R25   R(18,20)                1.3851         estimate D2E/DX2                !
 ! R26   R(20,21)                1.0849         estimate D2E/DX2                !
 ! R27   R(23,24)                1.4357         estimate D2E/DX2                !
 ! R28   R(24,25)                1.0991         estimate D2E/DX2                !
 ! R29   R(24,26)                1.098          estimate D2E/DX2                !
 ! R30   R(24,27)                1.5222         estimate D2E/DX2                !
 ! R31   R(27,28)                1.0988         estimate D2E/DX2                !
 ! R32   R(27,29)                1.0978         estimate D2E/DX2                !
 ! R33   R(27,30)                1.5345         estimate D2E/DX2                !
 ! R34   R(30,31)                1.0959         estimate D2E/DX2                !
 ! R35   R(30,32)                1.099          estimate D2E/DX2                !
 ! R36   R(30,33)                1.5327         estimate D2E/DX2                !
 ! R37   R(33,34)                1.0966         estimate D2E/DX2                !
 ! R38   R(33,35)                1.0951         estimate D2E/DX2                !
 ! R39   R(33,36)                1.0964         estimate D2E/DX2                !
 ! R40   R(37,38)                1.4035         estimate D2E/DX2                !
 ! R41   R(37,44)                1.4066         estimate D2E/DX2                !
 ! R42   R(37,47)                1.3585         estimate D2E/DX2                !
 ! R43   R(38,39)                1.3938         estimate D2E/DX2                !
 ! R44   R(38,46)                1.0829         estimate D2E/DX2                !
 ! R45   R(39,40)                1.0858         estimate D2E/DX2                !
 ! R46   R(39,41)                1.4069         estimate D2E/DX2                !
 ! R47   R(41,42)                1.4164         estimate D2E/DX2                !
 ! R48   R(42,43)                1.0864         estimate D2E/DX2                !
 ! R49   R(42,44)                1.3843         estimate D2E/DX2                !
 ! R50   R(44,45)                1.085          estimate D2E/DX2                !
 ! R51   R(47,48)                1.4345         estimate D2E/DX2                !
 ! R52   R(48,49)                1.0994         estimate D2E/DX2                !
 ! R53   R(48,50)                1.0983         estimate D2E/DX2                !
 ! R54   R(48,51)                1.5223         estimate D2E/DX2                !
 ! R55   R(51,52)                1.0988         estimate D2E/DX2                !
 ! R56   R(51,53)                1.0977         estimate D2E/DX2                !
 ! R57   R(51,54)                1.5346         estimate D2E/DX2                !
 ! R58   R(54,55)                1.0957         estimate D2E/DX2                !
 ! R59   R(54,56)                1.0991         estimate D2E/DX2                !
 ! R60   R(54,57)                1.5327         estimate D2E/DX2                !
 ! R61   R(57,58)                1.0967         estimate D2E/DX2                !
 ! R62   R(57,59)                1.0951         estimate D2E/DX2                !
 ! R63   R(57,60)                1.0964         estimate D2E/DX2                !
 ! A1    A(2,1,3)              113.5463         estimate D2E/DX2                !
 ! A2    A(2,1,12)             120.488          estimate D2E/DX2                !
 ! A3    A(3,1,12)             125.9657         estimate D2E/DX2                !
 ! A4    A(1,2,5)              102.9395         estimate D2E/DX2                !
 ! A5    A(1,2,9)              123.2993         estimate D2E/DX2                !
 ! A6    A(5,2,9)              133.7612         estimate D2E/DX2                !
 ! A7    A(1,3,4)              106.0122         estimate D2E/DX2                !
 ! A8    A(1,3,41)             122.6178         estimate D2E/DX2                !
 ! A9    A(4,3,41)             131.3699         estimate D2E/DX2                !
 ! A10   A(3,4,5)              109.2701         estimate D2E/DX2                !
 ! A11   A(3,4,7)              142.5474         estimate D2E/DX2                !
 ! A12   A(5,4,7)              108.1824         estimate D2E/DX2                !
 ! A13   A(2,5,4)              108.2318         estimate D2E/DX2                !
 ! A14   A(2,5,6)              142.4696         estimate D2E/DX2                !
 ! A15   A(4,5,6)              109.2985         estimate D2E/DX2                !
 ! A16   A(5,6,8)              106.0467         estimate D2E/DX2                !
 ! A17   A(5,6,17)             131.2959         estimate D2E/DX2                !
 ! A18   A(8,6,17)             122.6574         estimate D2E/DX2                !
 ! A19   A(4,7,8)              102.9363         estimate D2E/DX2                !
 ! A20   A(4,7,10)             133.7841         estimate D2E/DX2                !
 ! A21   A(8,7,10)             123.2796         estimate D2E/DX2                !
 ! A22   A(6,8,7)              113.536          estimate D2E/DX2                !
 ! A23   A(6,8,11)             125.9683         estimate D2E/DX2                !
 ! A24   A(7,8,11)             120.4953         estimate D2E/DX2                !
 ! A25   A(14,13,20)           119.4336         estimate D2E/DX2                !
 ! A26   A(14,13,23)           124.744          estimate D2E/DX2                !
 ! A27   A(20,13,23)           115.8224         estimate D2E/DX2                !
 ! A28   A(13,14,15)           120.0334         estimate D2E/DX2                !
 ! A29   A(13,14,22)           121.107          estimate D2E/DX2                !
 ! A30   A(15,14,22)           118.8596         estimate D2E/DX2                !
 ! A31   A(14,15,16)           119.2602         estimate D2E/DX2                !
 ! A32   A(14,15,17)           121.2176         estimate D2E/DX2                !
 ! A33   A(16,15,17)           119.5222         estimate D2E/DX2                !
 ! A34   A(6,17,15)            120.0203         estimate D2E/DX2                !
 ! A35   A(6,17,18)            122.0969         estimate D2E/DX2                !
 ! A36   A(15,17,18)           117.8828         estimate D2E/DX2                !
 ! A37   A(17,18,19)           120.8647         estimate D2E/DX2                !
 ! A38   A(17,18,20)           121.2356         estimate D2E/DX2                !
 ! A39   A(19,18,20)           117.8997         estimate D2E/DX2                !
 ! A40   A(13,20,18)           120.197          estimate D2E/DX2                !
 ! A41   A(13,20,21)           118.6887         estimate D2E/DX2                !
 ! A42   A(18,20,21)           121.1143         estimate D2E/DX2                !
 ! A43   A(13,23,24)           119.3298         estimate D2E/DX2                !
 ! A44   A(23,24,25)           109.327          estimate D2E/DX2                !
 ! A45   A(23,24,26)           109.2493         estimate D2E/DX2                !
 ! A46   A(23,24,27)           108.2302         estimate D2E/DX2                !
 ! A47   A(25,24,26)           108.4428         estimate D2E/DX2                !
 ! A48   A(25,24,27)           110.8102         estimate D2E/DX2                !
 ! A49   A(26,24,27)           110.7585         estimate D2E/DX2                !
 ! A50   A(24,27,28)           107.3047         estimate D2E/DX2                !
 ! A51   A(24,27,29)           108.6756         estimate D2E/DX2                !
 ! A52   A(24,27,30)           114.2386         estimate D2E/DX2                !
 ! A53   A(28,27,29)           106.5892         estimate D2E/DX2                !
 ! A54   A(28,27,30)           109.6979         estimate D2E/DX2                !
 ! A55   A(29,27,30)           110.0258         estimate D2E/DX2                !
 ! A56   A(27,30,31)           109.1478         estimate D2E/DX2                !
 ! A57   A(27,30,32)           109.0791         estimate D2E/DX2                !
 ! A58   A(27,30,33)           112.7452         estimate D2E/DX2                !
 ! A59   A(31,30,32)           106.4007         estimate D2E/DX2                !
 ! A60   A(31,30,33)           109.7366         estimate D2E/DX2                !
 ! A61   A(32,30,33)           109.5295         estimate D2E/DX2                !
 ! A62   A(30,33,34)           111.3591         estimate D2E/DX2                !
 ! A63   A(30,33,35)           111.2602         estimate D2E/DX2                !
 ! A64   A(30,33,36)           111.1565         estimate D2E/DX2                !
 ! A65   A(34,33,35)           107.6658         estimate D2E/DX2                !
 ! A66   A(34,33,36)           107.5871         estimate D2E/DX2                !
 ! A67   A(35,33,36)           107.6256         estimate D2E/DX2                !
 ! A68   A(38,37,44)           119.4424         estimate D2E/DX2                !
 ! A69   A(38,37,47)           124.5681         estimate D2E/DX2                !
 ! A70   A(44,37,47)           115.9895         estimate D2E/DX2                !
 ! A71   A(37,38,39)           119.5868         estimate D2E/DX2                !
 ! A72   A(37,38,46)           121.2119         estimate D2E/DX2                !
 ! A73   A(39,38,46)           119.2013         estimate D2E/DX2                !
 ! A74   A(38,39,40)           117.5011         estimate D2E/DX2                !
 ! A75   A(38,39,41)           121.6819         estimate D2E/DX2                !
 ! A76   A(40,39,41)           120.8171         estimate D2E/DX2                !
 ! A77   A(3,41,39)            122.0251         estimate D2E/DX2                !
 ! A78   A(3,41,42)            120.0954         estimate D2E/DX2                !
 ! A79   A(39,41,42)           117.8795         estimate D2E/DX2                !
 ! A80   A(41,42,43)           119.5483         estimate D2E/DX2                !
 ! A81   A(41,42,44)           120.7748         estimate D2E/DX2                !
 ! A82   A(43,42,44)           119.6769         estimate D2E/DX2                !
 ! A83   A(37,44,42)           120.6346         estimate D2E/DX2                !
 ! A84   A(37,44,45)           118.5945         estimate D2E/DX2                !
 ! A85   A(42,44,45)           120.7709         estimate D2E/DX2                !
 ! A86   A(37,47,48)           119.4423         estimate D2E/DX2                !
 ! A87   A(47,48,49)           109.327          estimate D2E/DX2                !
 ! A88   A(47,48,50)           109.3097         estimate D2E/DX2                !
 ! A89   A(47,48,51)           108.2816         estimate D2E/DX2                !
 ! A90   A(49,48,50)           108.4475         estimate D2E/DX2                !
 ! A91   A(49,48,51)           110.764          estimate D2E/DX2                !
 ! A92   A(50,48,51)           110.6903         estimate D2E/DX2                !
 ! A93   A(48,51,52)           107.3029         estimate D2E/DX2                !
 ! A94   A(48,51,53)           108.6856         estimate D2E/DX2                !
 ! A95   A(48,51,54)           114.2176         estimate D2E/DX2                !
 ! A96   A(52,51,53)           106.6085         estimate D2E/DX2                !
 ! A97   A(52,51,54)           109.7136         estimate D2E/DX2                !
 ! A98   A(53,51,54)           110.0067         estimate D2E/DX2                !
 ! A99   A(51,54,55)           109.1205         estimate D2E/DX2                !
 ! A100  A(51,54,56)           109.0942         estimate D2E/DX2                !
 ! A101  A(51,54,57)           112.7319         estimate D2E/DX2                !
 ! A102  A(55,54,56)           106.4121         estimate D2E/DX2                !
 ! A103  A(55,54,57)           109.7562         estimate D2E/DX2                !
 ! A104  A(56,54,57)           109.5254         estimate D2E/DX2                !
 ! A105  A(54,57,58)           111.3605         estimate D2E/DX2                !
 ! A106  A(54,57,59)           111.2453         estimate D2E/DX2                !
 ! A107  A(54,57,60)           111.1687         estimate D2E/DX2                !
 ! A108  A(58,57,59)           107.6685         estimate D2E/DX2                !
 ! A109  A(58,57,60)           107.5991         estimate D2E/DX2                !
 ! A110  A(59,57,60)           107.6122         estimate D2E/DX2                !
 ! D1    D(3,1,2,5)             -0.0093         estimate D2E/DX2                !
 ! D2    D(3,1,2,9)           -179.9846         estimate D2E/DX2                !
 ! D3    D(12,1,2,5)          -179.9922         estimate D2E/DX2                !
 ! D4    D(12,1,2,9)             0.0325         estimate D2E/DX2                !
 ! D5    D(2,1,3,4)              0.0287         estimate D2E/DX2                !
 ! D6    D(2,1,3,41)          -179.9696         estimate D2E/DX2                !
 ! D7    D(12,1,3,4)          -179.9895         estimate D2E/DX2                !
 ! D8    D(12,1,3,41)            0.0122         estimate D2E/DX2                !
 ! D9    D(1,2,5,4)             -0.0134         estimate D2E/DX2                !
 ! D10   D(1,2,5,6)            179.8739         estimate D2E/DX2                !
 ! D11   D(9,2,5,4)            179.9581         estimate D2E/DX2                !
 ! D12   D(9,2,5,6)             -0.1546         estimate D2E/DX2                !
 ! D13   D(1,3,4,5)             -0.0361         estimate D2E/DX2                !
 ! D14   D(1,3,4,7)           -179.9141         estimate D2E/DX2                !
 ! D15   D(41,3,4,5)           179.962          estimate D2E/DX2                !
 ! D16   D(41,3,4,7)             0.084          estimate D2E/DX2                !
 ! D17   D(1,3,41,39)            0.0931         estimate D2E/DX2                !
 ! D18   D(1,3,41,42)         -179.889          estimate D2E/DX2                !
 ! D19   D(4,3,41,39)         -179.9048         estimate D2E/DX2                !
 ! D20   D(4,3,41,42)            0.1132         estimate D2E/DX2                !
 ! D21   D(3,4,5,2)              0.0316         estimate D2E/DX2                !
 ! D22   D(3,4,5,6)           -179.8956         estimate D2E/DX2                !
 ! D23   D(7,4,5,2)            179.9535         estimate D2E/DX2                !
 ! D24   D(7,4,5,6)              0.0263         estimate D2E/DX2                !
 ! D25   D(3,4,7,8)            179.8401         estimate D2E/DX2                !
 ! D26   D(3,4,7,10)            -0.1573         estimate D2E/DX2                !
 ! D27   D(5,4,7,8)             -0.0387         estimate D2E/DX2                !
 ! D28   D(5,4,7,10)           179.9639         estimate D2E/DX2                !
 ! D29   D(2,5,6,8)           -179.8882         estimate D2E/DX2                !
 ! D30   D(2,5,6,17)             0.0566         estimate D2E/DX2                !
 ! D31   D(4,5,6,8)             -0.0016         estimate D2E/DX2                !
 ! D32   D(4,5,6,17)           179.9432         estimate D2E/DX2                !
 ! D33   D(5,6,8,7)             -0.0252         estimate D2E/DX2                !
 ! D34   D(5,6,8,11)          -179.7926         estimate D2E/DX2                !
 ! D35   D(17,6,8,7)          -179.9759         estimate D2E/DX2                !
 ! D36   D(17,6,8,11)            0.2567         estimate D2E/DX2                !
 ! D37   D(5,6,17,15)            0.1659         estimate D2E/DX2                !
 ! D38   D(5,6,17,18)         -179.7923         estimate D2E/DX2                !
 ! D39   D(8,6,17,15)         -179.8972         estimate D2E/DX2                !
 ! D40   D(8,6,17,18)            0.1447         estimate D2E/DX2                !
 ! D41   D(4,7,8,6)              0.04           estimate D2E/DX2                !
 ! D42   D(4,7,8,11)           179.8215         estimate D2E/DX2                !
 ! D43   D(10,7,8,6)          -179.9623         estimate D2E/DX2                !
 ! D44   D(10,7,8,11)           -0.1808         estimate D2E/DX2                !
 ! D45   D(20,13,14,15)          0.0287         estimate D2E/DX2                !
 ! D46   D(20,13,14,22)       -179.9566         estimate D2E/DX2                !
 ! D47   D(23,13,14,15)        179.9527         estimate D2E/DX2                !
 ! D48   D(23,13,14,22)         -0.0327         estimate D2E/DX2                !
 ! D49   D(14,13,20,18)         -0.0248         estimate D2E/DX2                !
 ! D50   D(14,13,20,21)        179.921          estimate D2E/DX2                !
 ! D51   D(23,13,20,18)       -179.9553         estimate D2E/DX2                !
 ! D52   D(23,13,20,21)         -0.0095         estimate D2E/DX2                !
 ! D53   D(14,13,23,24)         -0.2604         estimate D2E/DX2                !
 ! D54   D(20,13,23,24)        179.666          estimate D2E/DX2                !
 ! D55   D(13,14,15,16)        179.9962         estimate D2E/DX2                !
 ! D56   D(13,14,15,17)         -0.0112         estimate D2E/DX2                !
 ! D57   D(22,14,15,16)         -0.0182         estimate D2E/DX2                !
 ! D58   D(22,14,15,17)        179.9745         estimate D2E/DX2                !
 ! D59   D(14,15,17,6)        -179.9702         estimate D2E/DX2                !
 ! D60   D(14,15,17,18)         -0.0103         estimate D2E/DX2                !
 ! D61   D(16,15,17,6)           0.0225         estimate D2E/DX2                !
 ! D62   D(16,15,17,18)        179.9824         estimate D2E/DX2                !
 ! D63   D(6,17,18,19)           0.0327         estimate D2E/DX2                !
 ! D64   D(6,17,18,20)         179.9733         estimate D2E/DX2                !
 ! D65   D(15,17,18,19)       -179.9263         estimate D2E/DX2                !
 ! D66   D(15,17,18,20)          0.0144         estimate D2E/DX2                !
 ! D67   D(17,18,20,13)          0.0031         estimate D2E/DX2                !
 ! D68   D(17,18,20,21)       -179.9414         estimate D2E/DX2                !
 ! D69   D(19,18,20,13)        179.9454         estimate D2E/DX2                !
 ! D70   D(19,18,20,21)          0.001          estimate D2E/DX2                !
 ! D71   D(13,23,24,25)         59.019          estimate D2E/DX2                !
 ! D72   D(13,23,24,26)        -59.5083         estimate D2E/DX2                !
 ! D73   D(13,23,24,27)        179.8096         estimate D2E/DX2                !
 ! D74   D(23,24,27,28)        172.9914         estimate D2E/DX2                !
 ! D75   D(23,24,27,29)         58.0954         estimate D2E/DX2                !
 ! D76   D(23,24,27,30)        -65.1758         estimate D2E/DX2                !
 ! D77   D(25,24,27,28)        -67.1443         estimate D2E/DX2                !
 ! D78   D(25,24,27,29)        177.9598         estimate D2E/DX2                !
 ! D79   D(25,24,27,30)         54.6886         estimate D2E/DX2                !
 ! D80   D(26,24,27,28)         53.253          estimate D2E/DX2                !
 ! D81   D(26,24,27,29)        -61.643          estimate D2E/DX2                !
 ! D82   D(26,24,27,30)        175.0858         estimate D2E/DX2                !
 ! D83   D(24,27,30,31)         58.3774         estimate D2E/DX2                !
 ! D84   D(24,27,30,32)        -57.4941         estimate D2E/DX2                !
 ! D85   D(24,27,30,33)       -179.4018         estimate D2E/DX2                !
 ! D86   D(28,27,30,31)        178.8863         estimate D2E/DX2                !
 ! D87   D(28,27,30,32)         63.0148         estimate D2E/DX2                !
 ! D88   D(28,27,30,33)        -58.8929         estimate D2E/DX2                !
 ! D89   D(29,27,30,31)        -64.1609         estimate D2E/DX2                !
 ! D90   D(29,27,30,32)        179.9676         estimate D2E/DX2                !
 ! D91   D(29,27,30,33)         58.0599         estimate D2E/DX2                !
 ! D92   D(27,30,33,34)         59.7812         estimate D2E/DX2                !
 ! D93   D(27,30,33,35)        179.9003         estimate D2E/DX2                !
 ! D94   D(27,30,33,36)        -60.168          estimate D2E/DX2                !
 ! D95   D(31,30,33,34)       -178.3299         estimate D2E/DX2                !
 ! D96   D(31,30,33,35)        -58.2108         estimate D2E/DX2                !
 ! D97   D(31,30,33,36)         61.7209         estimate D2E/DX2                !
 ! D98   D(32,30,33,34)        -61.8718         estimate D2E/DX2                !
 ! D99   D(32,30,33,35)         58.2473         estimate D2E/DX2                !
 ! D100  D(32,30,33,36)        178.179          estimate D2E/DX2                !
 ! D101  D(44,37,38,39)          0.0489         estimate D2E/DX2                !
 ! D102  D(44,37,38,46)       -179.9321         estimate D2E/DX2                !
 ! D103  D(47,37,38,39)        179.9736         estimate D2E/DX2                !
 ! D104  D(47,37,38,46)         -0.0074         estimate D2E/DX2                !
 ! D105  D(38,37,44,42)         -0.0682         estimate D2E/DX2                !
 ! D106  D(38,37,44,45)        179.9359         estimate D2E/DX2                !
 ! D107  D(47,37,44,42)       -179.9992         estimate D2E/DX2                !
 ! D108  D(47,37,44,45)          0.0049         estimate D2E/DX2                !
 ! D109  D(38,37,47,48)          0.3781         estimate D2E/DX2                !
 ! D110  D(44,37,47,48)       -179.6948         estimate D2E/DX2                !
 ! D111  D(37,38,39,40)       -179.998          estimate D2E/DX2                !
 ! D112  D(37,38,39,41)         -0.0005         estimate D2E/DX2                !
 ! D113  D(46,38,39,40)         -0.0165         estimate D2E/DX2                !
 ! D114  D(46,38,39,41)        179.9809         estimate D2E/DX2                !
 ! D115  D(38,39,41,3)         179.9885         estimate D2E/DX2                !
 ! D116  D(38,39,41,42)         -0.029          estimate D2E/DX2                !
 ! D117  D(40,39,41,3)          -0.0141         estimate D2E/DX2                !
 ! D118  D(40,39,41,42)        179.9684         estimate D2E/DX2                !
 ! D119  D(3,41,42,43)          -0.032          estimate D2E/DX2                !
 ! D120  D(3,41,42,44)         179.9927         estimate D2E/DX2                !
 ! D121  D(39,41,42,43)        179.9852         estimate D2E/DX2                !
 ! D122  D(39,41,42,44)          0.0099         estimate D2E/DX2                !
 ! D123  D(41,42,44,37)          0.0385         estimate D2E/DX2                !
 ! D124  D(41,42,44,45)       -179.9657         estimate D2E/DX2                !
 ! D125  D(43,42,44,37)       -179.9367         estimate D2E/DX2                !
 ! D126  D(43,42,44,45)          0.0591         estimate D2E/DX2                !
 ! D127  D(37,47,48,49)         58.707          estimate D2E/DX2                !
 ! D128  D(37,47,48,50)        -59.8615         estimate D2E/DX2                !
 ! D129  D(37,47,48,51)        179.4727         estimate D2E/DX2                !
 ! D130  D(47,48,51,52)        173.588          estimate D2E/DX2                !
 ! D131  D(47,48,51,53)         58.6654         estimate D2E/DX2                !
 ! D132  D(47,48,51,54)        -64.574          estimate D2E/DX2                !
 ! D133  D(49,48,51,52)        -66.543          estimate D2E/DX2                !
 ! D134  D(49,48,51,53)        178.5343         estimate D2E/DX2                !
 ! D135  D(49,48,51,54)         55.295          estimate D2E/DX2                !
 ! D136  D(50,48,51,52)         53.7843         estimate D2E/DX2                !
 ! D137  D(50,48,51,53)        -61.1383         estimate D2E/DX2                !
 ! D138  D(50,48,51,54)        175.6224         estimate D2E/DX2                !
 ! D139  D(48,51,54,55)         58.7903         estimate D2E/DX2                !
 ! D140  D(48,51,54,56)        -57.0881         estimate D2E/DX2                !
 ! D141  D(48,51,54,57)       -178.9924         estimate D2E/DX2                !
 ! D142  D(52,51,54,55)        179.2941         estimate D2E/DX2                !
 ! D143  D(52,51,54,56)         63.4158         estimate D2E/DX2                !
 ! D144  D(52,51,54,57)        -58.4886         estimate D2E/DX2                !
 ! D145  D(53,51,54,55)        -63.7316         estimate D2E/DX2                !
 ! D146  D(53,51,54,56)       -179.6099         estimate D2E/DX2                !
 ! D147  D(53,51,54,57)         58.4858         estimate D2E/DX2                !
 ! D148  D(51,54,57,58)         59.8056         estimate D2E/DX2                !
 ! D149  D(51,54,57,59)        179.9191         estimate D2E/DX2                !
 ! D150  D(51,54,57,60)        -60.168          estimate D2E/DX2                !
 ! D151  D(55,54,57,58)       -178.3355         estimate D2E/DX2                !
 ! D152  D(55,54,57,59)        -58.222          estimate D2E/DX2                !
 ! D153  D(55,54,57,60)         61.6909         estimate D2E/DX2                !
 ! D154  D(56,54,57,58)        -61.8548         estimate D2E/DX2                !
 ! D155  D(56,54,57,59)         58.2587         estimate D2E/DX2                !
 ! D156  D(56,54,57,60)        178.1716         estimate D2E/DX2                !
 --------------------------------------------------------------------------------
 Trust Radius=3.00D-01 FncErr=1.00D-07 GrdErr=1.00D-06
 Number of steps in this run=    339 maximum allowed number of steps=    360.
 GradGradGradGradGradGradGradGradGradGradGradGradGradGradGradGradGradGrad

 Stoichiometry    C26H28N2O4(1-,2)
 Framework group  C1[X(C26H28N2O4)]
 Deg. of freedom   174
 Full point group                 C1      NOp   1
 Largest Abelian subgroup         C1      NOp   1
 Largest concise Abelian subgroup C1      NOp   1
                         Standard orientation:                         
 ---------------------------------------------------------------------
 Center     Atomic      Atomic             Coordinates (Angstroms)
 Number     Number       Type             X           Y           Z
 ---------------------------------------------------------------------
      1          7           0       -0.985394   -1.777339    0.005568
      2          6           0        0.426203   -1.671629    0.073540
      3          6           0       -1.632496   -0.546386   -0.070920
      4          6           0       -0.630640    0.414593   -0.054737
      5          6           0        0.647496   -0.234604    0.033640
      6          6           0        1.649956    0.726203    0.052252
      7          6           0       -0.407983    1.852657   -0.093480
      8          7           0        1.004534    1.957204   -0.023566
      9          8           0        1.173883   -2.646133    0.145776
     10          8           0       -1.153788    2.827289   -0.166404
     11          1           0        1.451966    2.860871   -0.034607
     12          1           0       -1.431751   -2.681420    0.015181
     13          6           0        5.900434    0.312803    0.290053
     14          6           0        5.072152   -0.820572    0.282743
     15          6           0        3.689738   -0.673005    0.204690
     16          1           0        3.060492   -1.558841    0.199874
     17          6           0        3.094090    0.602525    0.132156
     18          6           0        3.945378    1.731277    0.141297
     19          1           0        3.538239    2.736442    0.088651
     20          6           0        5.321333    1.592564    0.218640
     21          1           0        5.972696    2.460131    0.226462
     22          1           0        5.489078   -1.818671    0.337316
     23          8           0        7.256270    0.280234    0.363907
     24          6           0        7.925797   -0.987060    0.447094
     25          1           0        7.671564   -1.591365   -0.435037
     26          1           0        7.582420   -1.519692    1.343714
     27          6           0        9.424731   -0.730302    0.512998
     28          1           0        9.913626   -1.695698    0.703562
     29          1           0        9.634677   -0.095387    1.383619
     30          6           0       10.011350   -0.094745   -0.754563
     31          1           0        9.503944    0.857350   -0.947184
     32          1           0        9.793049   -0.742403   -1.615232
     33          6           0       11.523541    0.135153   -0.656854
     34          1           0       12.060992   -0.806687   -0.493412
     35          1           0       11.916510    0.587254   -1.573595
     36          1           0       11.768944    0.805353    0.175431
     37          6           0       -5.885521   -0.149223   -0.298735
     38          6           0       -5.307670   -1.426011   -0.222361
     39          6           0       -3.921471   -1.550691   -0.148363
     40          1           0       -3.510675   -2.554162   -0.090542
     41          6           0       -3.077314   -0.425169   -0.147969
     42          6           0       -3.679542    0.854481   -0.226314
     43          1           0       -3.053221    1.742214   -0.227750
     44          6           0       -5.055502    0.986378   -0.300461
     45          1           0       -5.516732    1.966638   -0.361031
     46          1           0       -5.919372   -2.319593   -0.220062
     47          8           0       -7.220746    0.089228   -0.374927
     48          6           0       -8.135613   -1.015621   -0.371972
     49          1           0       -7.997083   -1.600275    0.548720
     50          1           0       -7.923117   -1.665414   -1.231582
     51          6           0       -9.551838   -0.463127   -0.452484
     52          1           0      -10.230777   -1.319570   -0.566264
     53          1           0       -9.644589    0.134662   -1.368503
     54          6           0       -9.971771    0.372252    0.764392
     55          1           0       -9.281406    1.215792    0.876175
     56          1           0       -9.866618   -0.237565    1.672726
     57          6           0      -11.410289    0.890550    0.659051
     58          1           0      -12.127261    0.064890    0.575627
     59          1           0      -11.684671    1.481335    1.539313
     60          1           0      -11.537148    1.530074   -0.222388
 ---------------------------------------------------------------------
 Rotational constants (GHZ):      0.6489737      0.0311072      0.0299245
 Standard basis: 6-31+G(d,p) (6D, 7F)
 There are   748 symmetry adapted basis functions of A   symmetry.
 Integral buffers will be    262144 words long.
 Raffenetti 2 integral format.
 Two-electron integral symmetry is turned on.
   748 basis functions,  1220 primitive gaussians,   748 cartesian basis functions
   116 alpha electrons      115 beta electrons
       nuclear repulsion energy      2817.8621217340 Hartrees.
 NAtoms=   60 NActive=   60 NUniq=   60 SFac= 1.00D+00 NAtFMM=   50 NAOKFM=T Big=T
 One-electron integrals computed using PRISM.
 NBasis=   748 RedAO= T  NBF=   748
 NBsUse=   739 1.00D-06 NBFU=   739
 Harris functional with IExCor=  402 diagonalized for initial guess.
 ExpMin= 4.38D-02 ExpMax= 5.48D+03 ExpMxC= 8.25D+02 IAcc=2 IRadAn=         0 AccDes= 0.00D+00
 HarFok:  IExCor=  402 AccDes= 0.00D+00 IRadAn=         0 IDoV= 1
 ScaDFX=  1.000000  1.000000  1.000000  1.000000
 FoFCou: FMM=F IPFlag=           0 FMFlag=      100000 FMFlg1=        2001
         NFxFlg=           0 DoJE=T BraDBF=F KetDBF=T FulRan=T
         Omega=  0.000000  0.000000  1.000000  0.000000  0.000000 ICntrl=     500 IOpCl=  0
         NMat0=    1 NMatS0=    1 NMatT0=    0 NMatD0=    1 NMtDS0=    0 NMtDT0=    0
         I1Cent=           4 NGrid=           0.
 Petite list used in FoFCou.
 Initial guess orbital symmetries:
 Alpha Orbitals:
       Occupied  (A) (A) (A) (A) (A) (A) (A) (A) (A) (A) (A) (A)
                 (A) (A) (A) (A) (A) (A) (A) (A) (A) (A) (A) (A)
                 (A) (A) (A) (A) (A) (A) (A) (A) (A) (A) (A) (A)
                 (A) (A) (A) (A) (A) (A) (A) (A) (A) (A) (A) (A)
                 (A) (A) (A) (A) (A) (A) (A) (A) (A) (A) (A) (A)
                 (A) (A) (A) (A) (A) (A) (A) (A) (A) (A) (A) (A)
                 (A) (A) (A) (A) (A) (A) (A) (A) (A) (A) (A) (A)
                 (A) (A) (A) (A) (A) (A) (A) (A) (A) (A) (A) (A)
                 (A) (A) (A) (A) (A) (A) (A) (A) (A) (A) (A) (A)
                 (A) (A) (A) (A) (A) (A) (A) (A)
       Virtual   (A) (A) (A) (A) (A) (A) (A) (A) (A) (A) (A) (A)
                 (A) (A) (A) (A) (A) (A) (A) (A) (A) (A) (A) (A)
                 (A) (A) (A) (A) (A) (A) (A) (A) (A) (A) (A) (A)
                 (A) (A) (A) (A) (A) (A) (A) (A) (A) (A) (A) (A)
                 (A) (A) (A) (A) (A) (A) (A) (A) (A) (A) (A) (A)
                 (A) (A) (A) (A) (A) (A) (A) (A) (A) (A) (A) (A)
                 (A) (A) (A) (A) (A) (A) (A) (A) (A) (A) (A) (A)
                 (A) (A) (A) (A) (A) (A) (A) (A) (A) (A) (A) (A)
                 (A) (A) (A) (A) (A) (A) (A) (A) (A) (A) (A) (A)
                 (A) (A) (A) (A) (A) (A) (A) (A) (A) (A) (A) (A)
                 (A) (A) (A) (A) (A) (A) (A) (A) (A) (A) (A) (A)
                 (A) (A) (A) (A) (A) (A) (A) (A) (A) (A) (A) (A)
                 (A) (A) (A) (A) (A) (A) (A) (A) (A) (A) (A) (A)
                 (A) (A) (A) (A) (A) (A) (A) (A) (A) (A) (A) (A)
                 (A) (A) (A) (A) (A) (A) (A) (A) (A) (A) (A) (A)
                 (A) (A) (A) (A) (A) (A) (A) (A) (A) (A) (A) (A)
                 (A) (A) (A) (A) (A) (A) (A) (A) (A) (A) (A) (A)
                 (A) (A) (A) (A) (A) (A) (A) (A) (A) (A) (A) (A)
                 (A) (A) (A) (A) (A) (A) (A) (A) (A) (A) (A) (A)
                 (A) (A) (A) (A) (A) (A) (A) (A) (A) (A) (A) (A)
                 (A) (A) (A) (A) (A) (A) (A) (A) (A) (A) (A) (A)
                 (A) (A) (A) (A) (A) (A) (A) (A) (A) (A) (A) (A)
                 (A) (A) (A) (A) (A) (A) (A) (A) (A) (A) (A) (A)
                 (A) (A) (A) (A) (A) (A) (A) (A) (A) (A) (A) (A)
                 (A) (A) (A) (A) (A) (A) (A) (A) (A) (A) (A) (A)
                 (A) (A) (A) (A) (A) (A) (A) (A) (A) (A) (A) (A)
                 (A) (A) (A) (A) (A) (A) (A) (A) (A) (A) (A) (A)
                 (A) (A) (A) (A) (A) (A) (A) (A) (A) (A) (A) (A)
                 (A) (A) (A) (A) (A) (A) (A) (A) (A) (A) (A) (A)
                 (A) (A) (A) (A) (A) (A) (A) (A) (A) (A) (A) (A)
                 (A) (A) (A) (A) (A) (A) (A) (A) (A) (A) (A) (A)
                 (A) (A) (A) (A) (A) (A) (A) (A) (A) (A) (A) (A)
                 (A) (A) (A) (A) (A) (A) (A) (A) (A) (A) (A) (A)
                 (A) (A) (A) (A) (A) (A) (A) (A) (A) (A) (A) (A)
                 (A) (A) (A) (A) (A) (A) (A) (A) (A) (A) (A) (A)
                 (A) (A) (A) (A) (A) (A) (A) (A) (A) (A) (A) (A)
                 (A) (A) (A) (A) (A) (A) (A) (A) (A) (A) (A) (A)
                 (A) (A) (A) (A) (A) (A) (A) (A) (A) (A) (A) (A)
                 (A) (A) (A) (A) (A) (A) (A) (A) (A) (A) (A) (A)
                 (A) (A) (A) (A) (A) (A) (A) (A) (A) (A) (A) (A)
                 (A) (A) (A) (A) (A) (A) (A) (A) (A) (A) (A) (A)
                 (A) (A) (A) (A) (A) (A) (A) (A) (A) (A) (A) (A)
                 (A) (A) (A) (A) (A) (A) (A) (A) (A) (A) (A) (A)
                 (A) (A) (A) (A) (A) (A) (A) (A) (A) (A) (A) (A)
                 (A) (A) (A) (A) (A) (A) (A) (A) (A) (A) (A) (A)
                 (A) (A) (A) (A) (A) (A) (A) (A) (A) (A) (A) (A)
                 (A) (A) (A) (A) (A) (A) (A) (A) (A) (A) (A) (A)
                 (A) (A) (A) (A) (A) (A) (A) (A) (A) (A) (A) (A)
                 (A) (A) (A) (A) (A) (A) (A) (A) (A) (A) (A) (A)
                 (A) (A) (A) (A) (A) (A) (A) (A) (A) (A) (A) (A)
                 (A) (A) (A) (A) (A) (A) (A) (A) (A) (A) (A) (A)
                 (A) (A) (A) (A) (A) (A) (A) (A) (A) (A) (A)
 Beta  Orbitals:
       Occupied  (A) (A) (A) (A) (A) (A) (A) (A) (A) (A) (A) (A)
                 (A) (A) (A) (A) (A) (A) (A) (A) (A) (A) (A) (A)
                 (A) (A) (A) (A) (A) (A) (A) (A) (A) (A) (A) (A)
                 (A) (A) (A) (A) (A) (A) (A) (A) (A) (A) (A) (A)
                 (A) (A) (A) (A) (A) (A) (A) (A) (A) (A) (A) (A)
                 (A) (A) (A) (A) (A) (A) (A) (A) (A) (A) (A) (A)
                 (A) (A) (A) (A) (A) (A) (A) (A) (A) (A) (A) (A)
                 (A) (A) (A) (A) (A) (A) (A) (A) (A) (A) (A) (A)
                 (A) (A) (A) (A) (A) (A) (A) (A) (A) (A) (A) (A)
                 (A) (A) (A) (A) (A) (A) (A)
       Virtual   (A) (A) (A) (A) (A) (A) (A) (A) (A) (A) (A) (A)
                 (A) (A) (A) (A) (A) (A) (A) (A) (A) (A) (A) (A)
                 (A) (A) (A) (A) (A) (A) (A) (A) (A) (A) (A) (A)
                 (A) (A) (A) (A) (A) (A) (A) (A) (A) (A) (A) (A)
                 (A) (A) (A) (A) (A) (A) (A) (A) (A) (A) (A) (A)
                 (A) (A) (A) (A) (A) (A) (A) (A) (A) (A) (A) (A)
                 (A) (A) (A) (A) (A) (A) (A) (A) (A) (A) (A) (A)
                 (A) (A) (A) (A) (A) (A) (A) (A) (A) (A) (A) (A)
                 (A) (A) (A) (A) (A) (A) (A) (A) (A) (A) (A) (A)
                 (A) (A) (A) (A) (A) (A) (A) (A) (A) (A) (A) (A)
                 (A) (A) (A) (A) (A) (A) (A) (A) (A) (A) (A) (A)
                 (A) (A) (A) (A) (A) (A) (A) (A) (A) (A) (A) (A)
                 (A) (A) (A) (A) (A) (A) (A) (A) (A) (A) (A) (A)
                 (A) (A) (A) (A) (A) (A) (A) (A) (A) (A) (A) (A)
                 (A) (A) (A) (A) (A) (A) (A) (A) (A) (A) (A) (A)
                 (A) (A) (A) (A) (A) (A) (A) (A) (A) (A) (A) (A)
                 (A) (A) (A) (A) (A) (A) (A) (A) (A) (A) (A) (A)
                 (A) (A) (A) (A) (A) (A) (A) (A) (A) (A) (A) (A)
                 (A) (A) (A) (A) (A) (A) (A) (A) (A) (A) (A) (A)
                 (A) (A) (A) (A) (A) (A) (A) (A) (A) (A) (A) (A)
                 (A) (A) (A) (A) (A) (A) (A) (A) (A) (A) (A) (A)
                 (A) (A) (A) (A) (A) (A) (A) (A) (A) (A) (A) (A)
                 (A) (A) (A) (A) (A) (A) (A) (A) (A) (A) (A) (A)
                 (A) (A) (A) (A) (A) (A) (A) (A) (A) (A) (A) (A)
                 (A) (A) (A) (A) (A) (A) (A) (A) (A) (A) (A) (A)
                 (A) (A) (A) (A) (A) (A) (A) (A) (A) (A) (A) (A)
                 (A) (A) (A) (A) (A) (A) (A) (A) (A) (A) (A) (A)
                 (A) (A) (A) (A) (A) (A) (A) (A) (A) (A) (A) (A)
                 (A) (A) (A) (A) (A) (A) (A) (A) (A) (A) (A) (A)
                 (A) (A) (A) (A) (A) (A) (A) (A) (A) (A) (A) (A)
                 (A) (A) (A) (A) (A) (A) (A) (A) (A) (A) (A) (A)
                 (A) (A) (A) (A) (A) (A) (A) (A) (A) (A) (A) (A)
                 (A) (A) (A) (A) (A) (A) (A) (A) (A) (A) (A) (A)
                 (A) (A) (A) (A) (A) (A) (A) (A) (A) (A) (A) (A)
                 (A) (A) (A) (A) (A) (A) (A) (A) (A) (A) (A) (A)
                 (A) (A) (A) (A) (A) (A) (A) (A) (A) (A) (A) (A)
                 (A) (A) (A) (A) (A) (A) (A) (A) (A) (A) (A) (A)
                 (A) (A) (A) (A) (A) (A) (A) (A) (A) (A) (A) (A)
                 (A) (A) (A) (A) (A) (A) (A) (A) (A) (A) (A) (A)
                 (A) (A) (A) (A) (A) (A) (A) (A) (A) (A) (A) (A)
                 (A) (A) (A) (A) (A) (A) (A) (A) (A) (A) (A) (A)
                 (A) (A) (A) (A) (A) (A) (A) (A) (A) (A) (A) (A)
                 (A) (A) (A) (A) (A) (A) (A) (A) (A) (A) (A) (A)
                 (A) (A) (A) (A) (A) (A) (A) (A) (A) (A) (A) (A)
                 (A) (A) (A) (A) (A) (A) (A) (A) (A) (A) (A) (A)
                 (A) (A) (A) (A) (A) (A) (A) (A) (A) (A) (A) (A)
                 (A) (A) (A) (A) (A) (A) (A) (A) (A) (A) (A) (A)
                 (A) (A) (A) (A) (A) (A) (A) (A) (A) (A) (A) (A)
                 (A) (A) (A) (A) (A) (A) (A) (A) (A) (A) (A) (A)
                 (A) (A) (A) (A) (A) (A) (A) (A) (A) (A) (A) (A)
                 (A) (A) (A) (A) (A) (A) (A) (A) (A) (A) (A) (A)
                 (A) (A) (A) (A) (A) (A) (A) (A) (A) (A) (A) (A)
 The electronic state of the initial guess is 2-A.
 Initial guess <Sx>= 0.0000 <Sy>= 0.0000 <Sz>= 0.5000 <S**2>= 0.7500 S= 0.5000
 Requested convergence on RMS density matrix=1.00D-08 within 128 cycles.
 Requested convergence on MAX density matrix=1.00D-06.
 Requested convergence on             energy=1.00D-06.
 No special actions if energy rises.
 Restarting incremental Fock formation.
 SCF Done:  E(UB3LYP) =  -1418.20065350     A.U. after   27 cycles
             Convg  =    0.1487D-08             -V/T =  2.0093
 <Sx>= 0.0000 <Sy>= 0.0000 <Sz>= 0.5000 <S**2>= 0.7689 S= 0.5094
 <L.S>= 0.000000000000E+00
 Annihilation of the first spin contaminant:
 S**2 before annihilation     0.7689,   after     0.7503

 **********************************************************************

            Population analysis using the SCF density.

 **********************************************************************

 Orbital symmetries:
 Alpha Orbitals:
       Occupied  (A) (A) (A) (A) (A) (A) (A) (A) (A) (A) (A) (A)
                 (A) (A) (A) (A) (A) (A) (A) (A) (A) (A) (A) (A)
                 (A) (A) (A) (A) (A) (A) (A) (A) (A) (A) (A) (A)
                 (A) (A) (A) (A) (A) (A) (A) (A) (A) (A) (A) (A)
                 (A) (A) (A) (A) (A) (A) (A) (A) (A) (A) (A) (A)
                 (A) (A) (A) (A) (A) (A) (A) (A) (A) (A) (A) (A)
                 (A) (A) (A) (A) (A) (A) (A) (A) (A) (A) (A) (A)
                 (A) (A) (A) (A) (A) (A) (A) (A) (A) (A) (A) (A)
                 (A) (A) (A) (A) (A) (A) (A) (A) (A) (A) (A) (A)
                 (A) (A) (A) (A) (A) (A) (A) (A)
       Virtual   (A) (A) (A) (A) (A) (A) (A) (A) (A) (A) (A) (A)
                 (A) (A) (A) (A) (A) (A) (A) (A) (A) (A) (A) (A)
                 (A) (A) (A) (A) (A) (A) (A) (A) (A) (A) (A) (A)
                 (A) (A) (A) (A) (A) (A) (A) (A) (A) (A) (A) (A)
                 (A) (A) (A) (A) (A) (A) (A) (A) (A) (A) (A) (A)
                 (A) (A) (A) (A) (A) (A) (A) (A) (A) (A) (A) (A)
                 (A) (A) (A) (A) (A) (A) (A) (A) (A) (A) (A) (A)
                 (A) (A) (A) (A) (A) (A) (A) (A) (A) (A) (A) (A)
                 (A) (A) (A) (A) (A) (A) (A) (A) (A) (A) (A) (A)
                 (A) (A) (A) (A) (A) (A) (A) (A) (A) (A) (A) (A)
                 (A) (A) (A) (A) (A) (A) (A) (A) (A) (A) (A) (A)
                 (A) (A) (A) (A) (A) (A) (A) (A) (A) (A) (A) (A)
                 (A) (A) (A) (A) (A) (A) (A) (A) (A) (A) (A) (A)
                 (A) (A) (A) (A) (A) (A) (A) (A) (A) (A) (A) (A)
                 (A) (A) (A) (A) (A) (A) (A) (A) (A) (A) (A) (A)
                 (A) (A) (A) (A) (A) (A) (A) (A) (A) (A) (A) (A)
                 (A) (A) (A) (A) (A) (A) (A) (A) (A) (A) (A) (A)
                 (A) (A) (A) (A) (A) (A) (A) (A) (A) (A) (A) (A)
                 (A) (A) (A) (A) (A) (A) (A) (A) (A) (A) (A) (A)
                 (A) (A) (A) (A) (A) (A) (A) (A) (A) (A) (A) (A)
                 (A) (A) (A) (A) (A) (A) (A) (A) (A) (A) (A) (A)
                 (A) (A) (A) (A) (A) (A) (A) (A) (A) (A) (A) (A)
                 (A) (A) (A) (A) (A) (A) (A) (A) (A) (A) (A) (A)
                 (A) (A) (A) (A) (A) (A) (A) (A) (A) (A) (A) (A)
                 (A) (A) (A) (A) (A) (A) (A) (A) (A) (A) (A) (A)
                 (A) (A) (A) (A) (A) (A) (A) (A) (A) (A) (A) (A)
                 (A) (A) (A) (A) (A) (A) (A) (A) (A) (A) (A) (A)
                 (A) (A) (A) (A) (A) (A) (A) (A) (A) (A) (A) (A)
                 (A) (A) (A) (A) (A) (A) (A) (A) (A) (A) (A) (A)
                 (A) (A) (A) (A) (A) (A) (A) (A) (A) (A) (A) (A)
                 (A) (A) (A) (A) (A) (A) (A) (A) (A) (A) (A) (A)
                 (A) (A) (A) (A) (A) (A) (A) (A) (A) (A) (A) (A)
                 (A) (A) (A) (A) (A) (A) (A) (A) (A) (A) (A) (A)
                 (A) (A) (A) (A) (A) (A) (A) (A) (A) (A) (A) (A)
                 (A) (A) (A) (A) (A) (A) (A) (A) (A) (A) (A) (A)
                 (A) (A) (A) (A) (A) (A) (A) (A) (A) (A) (A) (A)
                 (A) (A) (A) (A) (A) (A) (A) (A) (A) (A) (A) (A)
                 (A) (A) (A) (A) (A) (A) (A) (A) (A) (A) (A) (A)
                 (A) (A) (A) (A) (A) (A) (A) (A) (A) (A) (A) (A)
                 (A) (A) (A) (A) (A) (A) (A) (A) (A) (A) (A) (A)
                 (A) (A) (A) (A) (A) (A) (A) (A) (A) (A) (A) (A)
                 (A) (A) (A) (A) (A) (A) (A) (A) (A) (A) (A) (A)
                 (A) (A) (A) (A) (A) (A) (A) (A) (A) (A) (A) (A)
                 (A) (A) (A) (A) (A) (A) (A) (A) (A) (A) (A) (A)
                 (A) (A) (A) (A) (A) (A) (A) (A) (A) (A) (A) (A)
                 (A) (A) (A) (A) (A) (A) (A) (A) (A) (A) (A) (A)
                 (A) (A) (A) (A) (A) (A) (A) (A) (A) (A) (A) (A)
                 (A) (A) (A) (A) (A) (A) (A) (A) (A) (A) (A) (A)
                 (A) (A) (A) (A) (A) (A) (A) (A) (A) (A) (A) (A)
                 (A) (A) (A) (A) (A) (A) (A) (A) (A) (A) (A) (A)
                 (A) (A) (A) (A) (A) (A) (A) (A) (A) (A) (A) (A)
                 (A) (A) (A) (A) (A) (A) (A) (A) (A) (A) (A)
 Beta  Orbitals:
       Occupied  (A) (A) (A) (A) (A) (A) (A) (A) (A) (A) (A) (A)
                 (A) (A) (A) (A) (A) (A) (A) (A) (A) (A) (A) (A)
                 (A) (A) (A) (A) (A) (A) (A) (A) (A) (A) (A) (A)
                 (A) (A) (A) (A) (A) (A) (A) (A) (A) (A) (A) (A)
                 (A) (A) (A) (A) (A) (A) (A) (A) (A) (A) (A) (A)
                 (A) (A) (A) (A) (A) (A) (A) (A) (A) (A) (A) (A)
                 (A) (A) (A) (A) (A) (A) (A) (A) (A) (A) (A) (A)
                 (A) (A) (A) (A) (A) (A) (A) (A) (A) (A) (A) (A)
                 (A) (A) (A) (A) (A) (A) (A) (A) (A) (A) (A) (A)
                 (A) (A) (A) (A) (A) (A) (A)
       Virtual   (A) (A) (A) (A) (A) (A) (A) (A) (A) (A) (A) (A)
                 (A) (A) (A) (A) (A) (A) (A) (A) (A) (A) (A) (A)
                 (A) (A) (A) (A) (A) (A) (A) (A) (A) (A) (A) (A)
                 (A) (A) (A) (A) (A) (A) (A) (A) (A) (A) (A) (A)
                 (A) (A) (A) (A) (A) (A) (A) (A) (A) (A) (A) (A)
                 (A) (A) (A) (A) (A) (A) (A) (A) (A) (A) (A) (A)
                 (A) (A) (A) (A) (A) (A) (A) (A) (A) (A) (A) (A)
                 (A) (A) (A) (A) (A) (A) (A) (A) (A) (A) (A) (A)
                 (A) (A) (A) (A) (A) (A) (A) (A) (A) (A) (A) (A)
                 (A) (A) (A) (A) (A) (A) (A) (A) (A) (A) (A) (A)
                 (A) (A) (A) (A) (A) (A) (A) (A) (A) (A) (A) (A)
                 (A) (A) (A) (A) (A) (A) (A) (A) (A) (A) (A) (A)
                 (A) (A) (A) (A) (A) (A) (A) (A) (A) (A) (A) (A)
                 (A) (A) (A) (A) (A) (A) (A) (A) (A) (A) (A) (A)
                 (A) (A) (A) (A) (A) (A) (A) (A) (A) (A) (A) (A)
                 (A) (A) (A) (A) (A) (A) (A) (A) (A) (A) (A) (A)
                 (A) (A) (A) (A) (A) (A) (A) (A) (A) (A) (A) (A)
                 (A) (A) (A) (A) (A) (A) (A) (A) (A) (A) (A) (A)
                 (A) (A) (A) (A) (A) (A) (A) (A) (A) (A) (A) (A)
                 (A) (A) (A) (A) (A) (A) (A) (A) (A) (A) (A) (A)
                 (A) (A) (A) (A) (A) (A) (A) (A) (A) (A) (A) (A)
                 (A) (A) (A) (A) (A) (A) (A) (A) (A) (A) (A) (A)
                 (A) (A) (A) (A) (A) (A) (A) (A) (A) (A) (A) (A)
                 (A) (A) (A) (A) (A) (A) (A) (A) (A) (A) (A) (A)
                 (A) (A) (A) (A) (A) (A) (A) (A) (A) (A) (A) (A)
                 (A) (A) (A) (A) (A) (A) (A) (A) (A) (A) (A) (A)
                 (A) (A) (A) (A) (A) (A) (A) (A) (A) (A) (A) (A)
                 (A) (A) (A) (A) (A) (A) (A) (A) (A) (A) (A) (A)
                 (A) (A) (A) (A) (A) (A) (A) (A) (A) (A) (A) (A)
                 (A) (A) (A) (A) (A) (A) (A) (A) (A) (A) (A) (A)
                 (A) (A) (A) (A) (A) (A) (A) (A) (A) (A) (A) (A)
                 (A) (A) (A) (A) (A) (A) (A) (A) (A) (A) (A) (A)
                 (A) (A) (A) (A) (A) (A) (A) (A) (A) (A) (A) (A)
                 (A) (A) (A) (A) (A) (A) (A) (A) (A) (A) (A) (A)
                 (A) (A) (A) (A) (A) (A) (A) (A) (A) (A) (A) (A)
                 (A) (A) (A) (A) (A) (A) (A) (A) (A) (A) (A) (A)
                 (A) (A) (A) (A) (A) (A) (A) (A) (A) (A) (A) (A)
                 (A) (A) (A) (A) (A) (A) (A) (A) (A) (A) (A) (A)
                 (A) (A) (A) (A) (A) (A) (A) (A) (A) (A) (A) (A)
                 (A) (A) (A) (A) (A) (A) (A) (A) (A) (A) (A) (A)
                 (A) (A) (A) (A) (A) (A) (A) (A) (A) (A) (A) (A)
                 (A) (A) (A) (A) (A) (A) (A) (A) (A) (A) (A) (A)
                 (A) (A) (A) (A) (A) (A) (A) (A) (A) (A) (A) (A)
                 (A) (A) (A) (A) (A) (A) (A) (A) (A) (A) (A) (A)
                 (A) (A) (A) (A) (A) (A) (A) (A) (A) (A) (A) (A)
                 (A) (A) (A) (A) (A) (A) (A) (A) (A) (A) (A) (A)
                 (A) (A) (A) (A) (A) (A) (A) (A) (A) (A) (A) (A)
                 (A) (A) (A) (A) (A) (A) (A) (A) (A) (A) (A) (A)
                 (A) (A) (A) (A) (A) (A) (A) (A) (A) (A) (A) (A)
                 (A) (A) (A) (A) (A) (A) (A) (A) (A) (A) (A) (A)
                 (A) (A) (A) (A) (A) (A) (A) (A) (A) (A) (A) (A)
                 (A) (A) (A) (A) (A) (A) (A) (A) (A) (A) (A) (A)
 The electronic state is 2-A.
 Alpha  occ. eigenvalues --  -19.09629 -19.09595 -18.99046 -18.99019 -14.24779
 Alpha  occ. eigenvalues --  -14.24774 -10.17332 -10.17180 -10.15585 -10.15568
 Alpha  occ. eigenvalues --  -10.14824 -10.14805 -10.12872 -10.12807 -10.12659
 Alpha  occ. eigenvalues --  -10.12638 -10.12636 -10.12609 -10.10481 -10.10451
 Alpha  occ. eigenvalues --  -10.09504 -10.09250 -10.09116 -10.09114 -10.09060
 Alpha  occ. eigenvalues --  -10.09045 -10.08988 -10.08507 -10.07837 -10.07836
 Alpha  occ. eigenvalues --  -10.04958 -10.04906  -0.98192  -0.98152  -0.90876
 Alpha  occ. eigenvalues --   -0.90428  -0.83486  -0.82235  -0.75568  -0.75529
 Alpha  occ. eigenvalues --   -0.73697  -0.73684  -0.68172  -0.68124  -0.66912
 Alpha  occ. eigenvalues --   -0.65138  -0.64917  -0.64555  -0.64401  -0.59342
 Alpha  occ. eigenvalues --   -0.58422  -0.57115  -0.54985  -0.54186  -0.53057
 Alpha  occ. eigenvalues --   -0.52781  -0.50804  -0.50459  -0.49320  -0.48537
 Alpha  occ. eigenvalues --   -0.45056  -0.44977  -0.43878  -0.41444  -0.41133
 Alpha  occ. eigenvalues --   -0.40723  -0.40577  -0.40016  -0.39260  -0.38964
 Alpha  occ. eigenvalues --   -0.38757  -0.38236  -0.36383  -0.35855  -0.34781
 Alpha  occ. eigenvalues --   -0.34634  -0.33799  -0.33645  -0.32894  -0.32850
 Alpha  occ. eigenvalues --   -0.32727  -0.32480  -0.32273  -0.32033  -0.31609
 Alpha  occ. eigenvalues --   -0.31190  -0.30067  -0.29824  -0.29725  -0.29078
 Alpha  occ. eigenvalues --   -0.28967  -0.28814  -0.27845  -0.27781  -0.27192
 Alpha  occ. eigenvalues --   -0.27149  -0.27100  -0.27021  -0.26255  -0.26030
 Alpha  occ. eigenvalues --   -0.24638  -0.24158  -0.23756  -0.23003  -0.22950
 Alpha  occ. eigenvalues --   -0.20447  -0.20233  -0.15717  -0.15618  -0.14196
 Alpha  occ. eigenvalues --   -0.13202  -0.13142  -0.12474  -0.12354  -0.06716
 Alpha  occ. eigenvalues --   -0.00160
 Alpha virt. eigenvalues --    0.06319   0.06336   0.07110   0.07492   0.07961
 Alpha virt. eigenvalues --    0.08377   0.08389   0.08696   0.08931   0.08947
 Alpha virt. eigenvalues --    0.09320   0.09411   0.09862   0.10617   0.10931
 Alpha virt. eigenvalues --    0.11563   0.11886   0.11919   0.12182   0.12374
 Alpha virt. eigenvalues --    0.12468   0.12567   0.13109   0.13213   0.13368
 Alpha virt. eigenvalues --    0.13784   0.14019   0.14286   0.14609   0.14868
 Alpha virt. eigenvalues --    0.15088   0.15234   0.15477   0.15924   0.16119
 Alpha virt. eigenvalues --    0.16792   0.16923   0.17282   0.17651   0.17935
 Alpha virt. eigenvalues --    0.18259   0.18688   0.18746   0.19025   0.19495
 Alpha virt. eigenvalues --    0.19812   0.20009   0.20156   0.20261   0.20573
 Alpha virt. eigenvalues --    0.20878   0.21073   0.21437   0.21584   0.22052
 Alpha virt. eigenvalues --    0.22150   0.22441   0.22580   0.23059   0.23294
 Alpha virt. eigenvalues --    0.23724   0.23895   0.24020   0.24482   0.24722
 Alpha virt. eigenvalues --    0.25038   0.25105   0.25449   0.25653   0.25820
 Alpha virt. eigenvalues --    0.25983   0.26318   0.26482   0.26703   0.27036
 Alpha virt. eigenvalues --    0.27169   0.27334   0.27465   0.27612   0.28092
 Alpha virt. eigenvalues --    0.28235   0.28528   0.28700   0.28828   0.29371
 Alpha virt. eigenvalues --    0.29609   0.29720   0.29834   0.30397   0.30546
 Alpha virt. eigenvalues --    0.30586   0.30976   0.31013   0.31376   0.31568
 Alpha virt. eigenvalues --    0.31828   0.31939   0.32047   0.32294   0.32671
 Alpha virt. eigenvalues --    0.32819   0.33113   0.33324   0.33381   0.33641
 Alpha virt. eigenvalues --    0.33876   0.34035   0.34298   0.34308   0.34574
 Alpha virt. eigenvalues --    0.34821   0.35228   0.35304   0.35545   0.35727
 Alpha virt. eigenvalues --    0.35869   0.35997   0.36309   0.36402   0.36811
 Alpha virt. eigenvalues --    0.37059   0.37256   0.37619   0.38027   0.38172
 Alpha virt. eigenvalues --    0.38310   0.38612   0.38850   0.39061   0.39353
 Alpha virt. eigenvalues --    0.39517   0.39904   0.40022   0.40451   0.40953
 Alpha virt. eigenvalues --    0.41070   0.41504   0.41727   0.42002   0.42125
 Alpha virt. eigenvalues --    0.42301   0.42587   0.42723   0.43174   0.43315
 Alpha virt. eigenvalues --    0.43932   0.44135   0.44306   0.44509   0.44951
 Alpha virt. eigenvalues --    0.45246   0.45434   0.46094   0.46179   0.46438
 Alpha virt. eigenvalues --    0.46713   0.46782   0.47116   0.47602   0.47719
 Alpha virt. eigenvalues --    0.48218   0.48971   0.49192   0.49539   0.49780
 Alpha virt. eigenvalues --    0.50242   0.51469   0.51667   0.52129   0.52374
 Alpha virt. eigenvalues --    0.53427   0.54029   0.55408   0.56856   0.56925
 Alpha virt. eigenvalues --    0.57544   0.58096   0.59711   0.60729   0.61076
 Alpha virt. eigenvalues --    0.62595   0.62994   0.64530   0.65356   0.67938
 Alpha virt. eigenvalues --    0.68894   0.69450   0.69681   0.70759   0.71320
 Alpha virt. eigenvalues --    0.71436   0.71725   0.71982   0.72792   0.73146
 Alpha virt. eigenvalues --    0.73784   0.75242   0.75306   0.75964   0.76090
 Alpha virt. eigenvalues --    0.77055   0.77480   0.77686   0.78151   0.78201
 Alpha virt. eigenvalues --    0.79228   0.79710   0.79863   0.80367   0.81632
 Alpha virt. eigenvalues --    0.81649   0.82262   0.82728   0.82873   0.82917
 Alpha virt. eigenvalues --    0.83869   0.84273   0.84576   0.84916   0.85594
 Alpha virt. eigenvalues --    0.85877   0.86466   0.86992   0.87369   0.88699
 Alpha virt. eigenvalues --    0.88996   0.89249   0.90252   0.90465   0.90991
 Alpha virt. eigenvalues --    0.91066   0.91904   0.92274   0.93268   0.93515
 Alpha virt. eigenvalues --    0.93820   0.94523   0.94904   0.95753   0.96157
 Alpha virt. eigenvalues --    0.96726   0.96896   0.97122   0.98789   0.99187
 Alpha virt. eigenvalues --    1.00192   1.00382   1.00837   1.01267   1.02442
 Alpha virt. eigenvalues --    1.02649   1.03260   1.03462   1.04240   1.04495
 Alpha virt. eigenvalues --    1.05428   1.05778   1.06662   1.06963   1.07078
 Alpha virt. eigenvalues --    1.07311   1.08061   1.08650   1.09383   1.09758
 Alpha virt. eigenvalues --    1.11598   1.12370   1.12391   1.13466   1.13712
 Alpha virt. eigenvalues --    1.15001   1.15518   1.15656   1.15945   1.16276
 Alpha virt. eigenvalues --    1.16732   1.16760   1.17691   1.18259   1.18896
 Alpha virt. eigenvalues --    1.19563   1.20485   1.21301   1.21385   1.22147
 Alpha virt. eigenvalues --    1.22491   1.23064   1.23953   1.25645   1.26542
 Alpha virt. eigenvalues --    1.26555   1.27684   1.29038   1.29603   1.30292
 Alpha virt. eigenvalues --    1.30832   1.31250   1.31746   1.32811   1.33802
 Alpha virt. eigenvalues --    1.34117   1.34414   1.34934   1.35112   1.35536
 Alpha virt. eigenvalues --    1.35815   1.36561   1.37398   1.38074   1.38301
 Alpha virt. eigenvalues --    1.38559   1.38870   1.39133   1.40833   1.41110
 Alpha virt. eigenvalues --    1.41381   1.42463   1.42940   1.43524   1.44495
 Alpha virt. eigenvalues --    1.44895   1.45182   1.45467   1.45776   1.47929
 Alpha virt. eigenvalues --    1.48270   1.48352   1.48464   1.49037   1.49527
 Alpha virt. eigenvalues --    1.49804   1.50114   1.50301   1.50627   1.50835
 Alpha virt. eigenvalues --    1.51901   1.52212   1.52488   1.52591   1.52983
 Alpha virt. eigenvalues --    1.53739   1.53894   1.54454   1.55629   1.55986
 Alpha virt. eigenvalues --    1.56183   1.58162   1.58775   1.59482   1.60584
 Alpha virt. eigenvalues --    1.61706   1.62203   1.64899   1.67109   1.67735
 Alpha virt. eigenvalues --    1.69796   1.69996   1.70282   1.70690   1.72338
 Alpha virt. eigenvalues --    1.73288   1.74563   1.74608   1.75365   1.76465
 Alpha virt. eigenvalues --    1.78012   1.80166   1.84309   1.84717   1.86775
 Alpha virt. eigenvalues --    1.86950   1.87430   1.88594   1.89480   1.90376
 Alpha virt. eigenvalues --    1.90891   1.91053   1.91138   1.92550   1.94189
 Alpha virt. eigenvalues --    1.95003   1.95879   1.96511   1.96594   1.97325
 Alpha virt. eigenvalues --    1.97829   1.98217   1.99307   1.99371   1.99612
 Alpha virt. eigenvalues --    1.99757   2.00917   2.01550   2.02047   2.02202
 Alpha virt. eigenvalues --    2.02884   2.03364   2.03978   2.04145   2.05262
 Alpha virt. eigenvalues --    2.05967   2.05994   2.06704   2.08033   2.08301
 Alpha virt. eigenvalues --    2.08944   2.09058   2.09434   2.09541   2.09568
 Alpha virt. eigenvalues --    2.09934   2.10008   2.10118   2.13010   2.13752
 Alpha virt. eigenvalues --    2.14070   2.14560   2.15312   2.15379   2.15468
 Alpha virt. eigenvalues --    2.15726   2.16222   2.17168   2.17286   2.17824
 Alpha virt. eigenvalues --    2.19132   2.19540   2.19662   2.19965   2.20389
 Alpha virt. eigenvalues --    2.21252   2.21631   2.21765   2.22445   2.22575
 Alpha virt. eigenvalues --    2.22873   2.24779   2.25282   2.25709   2.28449
 Alpha virt. eigenvalues --    2.30035   2.30969   2.31145   2.31392   2.31729
 Alpha virt. eigenvalues --    2.33355   2.34407   2.34484   2.34550   2.34734
 Alpha virt. eigenvalues --    2.36603   2.36823   2.37110   2.37394   2.37907
 Alpha virt. eigenvalues --    2.38359   2.41324   2.41680   2.41940   2.42388
 Alpha virt. eigenvalues --    2.44451   2.45541   2.46345   2.46845   2.47668
 Alpha virt. eigenvalues --    2.48461   2.48982   2.49341   2.50889   2.51381
 Alpha virt. eigenvalues --    2.51602   2.54576   2.54641   2.54869   2.57685
 Alpha virt. eigenvalues --    2.57805   2.58388   2.58972   2.59220   2.59595
 Alpha virt. eigenvalues --    2.59708   2.60492   2.61600   2.62331   2.62858
 Alpha virt. eigenvalues --    2.63296   2.65304   2.65680   2.65838   2.66304
 Alpha virt. eigenvalues --    2.66592   2.67182   2.67955   2.68891   2.69305
 Alpha virt. eigenvalues --    2.70086   2.70384   2.71618   2.74046   2.74569
 Alpha virt. eigenvalues --    2.75228   2.76223   2.77249   2.78178   2.78396
 Alpha virt. eigenvalues --    2.78901   2.79096   2.80067   2.80791   2.81434
 Alpha virt. eigenvalues --    2.81705   2.81876   2.81954   2.82372   2.83232
 Alpha virt. eigenvalues --    2.84345   2.84506   2.85082   2.86348   2.88066
 Alpha virt. eigenvalues --    2.88540   2.88963   2.89337   2.89604   2.90680
 Alpha virt. eigenvalues --    2.90782   2.91564   2.92756   2.92892   2.94386
 Alpha virt. eigenvalues --    2.94605   2.94668   2.95882   2.97338   2.97545
 Alpha virt. eigenvalues --    2.98657   2.99335   2.99566   3.01917   3.02728
 Alpha virt. eigenvalues --    3.06229   3.07029   3.09495   3.11079   3.11736
 Alpha virt. eigenvalues --    3.15112   3.17316   3.19658   3.20534   3.20930
 Alpha virt. eigenvalues --    3.21431   3.22128   3.23736   3.26160   3.29191
 Alpha virt. eigenvalues --    3.29308   3.30552   3.31856   3.33524   3.37404
 Alpha virt. eigenvalues --    3.37528   3.38659   3.39689   3.40595   3.41009
 Alpha virt. eigenvalues --    3.41777   3.43407   3.43558   3.43664   3.45397
 Alpha virt. eigenvalues --    3.45491   3.46722   3.48126   3.50517   3.51257
 Alpha virt. eigenvalues --    3.52914   3.53022   3.54748   3.55055   3.55895
 Alpha virt. eigenvalues --    3.59786   3.59876   3.63836   3.64739   3.64800
 Alpha virt. eigenvalues --    3.66392   3.66931   3.70917   3.71952   3.94897
 Alpha virt. eigenvalues --    3.95259   4.38268   4.39663   4.40797   4.42774
 Alpha virt. eigenvalues --    4.43817   4.45540   4.46874   4.49496   4.51398
 Alpha virt. eigenvalues --    4.52384   4.53082   4.54888   4.56955   4.57814
 Alpha virt. eigenvalues --    4.57885   4.59534   4.60684   4.62736   4.63341
 Alpha virt. eigenvalues --    4.66398   4.68406   4.72172   4.74014   4.77428
 Alpha virt. eigenvalues --    4.81729   4.81859   4.84425   4.91985   5.02000
 Alpha virt. eigenvalues --    5.03890   5.18530   5.27477
  Beta  occ. eigenvalues --  -19.09579 -19.09540 -18.98853 -18.98817 -14.24813
  Beta  occ. eigenvalues --  -14.24808 -10.17334 -10.17182 -10.15497 -10.15476
  Beta  occ. eigenvalues --  -10.14651 -10.14638 -10.12873 -10.12808 -10.12659
  Beta  occ. eigenvalues --  -10.12638 -10.12636 -10.12609 -10.10071 -10.10049
  Beta  occ. eigenvalues --  -10.09571 -10.09201 -10.09148 -10.09130 -10.09087
  Beta  occ. eigenvalues --  -10.09054 -10.08942 -10.08568 -10.07728 -10.07694
  Beta  occ. eigenvalues --  -10.05010 -10.04960  -0.98068  -0.98019  -0.90563
  Beta  occ. eigenvalues --   -0.90103  -0.83208  -0.81978  -0.75456  -0.75419
  Beta  occ. eigenvalues --   -0.73660  -0.73647  -0.68087  -0.68045  -0.66871
  Beta  occ. eigenvalues --   -0.64947  -0.64782  -0.64439  -0.64246  -0.59075
  Beta  occ. eigenvalues --   -0.58323  -0.56961  -0.54534  -0.54048  -0.53027
  Beta  occ. eigenvalues --   -0.52677  -0.50703  -0.50368  -0.49235  -0.48408
  Beta  occ. eigenvalues --   -0.44974  -0.44894  -0.43765  -0.41347  -0.41074
  Beta  occ. eigenvalues --   -0.40677  -0.40438  -0.39890  -0.39211  -0.38894
  Beta  occ. eigenvalues --   -0.38716  -0.38196  -0.36322  -0.35808  -0.34705
  Beta  occ. eigenvalues --   -0.34560  -0.33697  -0.33573  -0.32819  -0.32692
  Beta  occ. eigenvalues --   -0.32421  -0.32238  -0.32043  -0.31973  -0.31507
  Beta  occ. eigenvalues --   -0.31069  -0.29886  -0.29604  -0.29506  -0.28910
  Beta  occ. eigenvalues --   -0.28845  -0.28342  -0.27766  -0.27688  -0.27062
  Beta  occ. eigenvalues --   -0.27036  -0.26938  -0.26864  -0.26196  -0.25968
  Beta  occ. eigenvalues --   -0.24038  -0.23931  -0.23193  -0.22952  -0.22903
  Beta  occ. eigenvalues --   -0.19593  -0.19193  -0.15361  -0.15265  -0.14019
  Beta  occ. eigenvalues --   -0.12848  -0.12673  -0.12334  -0.12309  -0.05214
  Beta virt. eigenvalues --    0.04845   0.06319   0.06336   0.07109   0.07495
  Beta virt. eigenvalues --    0.08370   0.08394   0.08869   0.08878   0.09111
  Beta virt. eigenvalues --    0.09303   0.09395   0.09521   0.09874   0.10618
  Beta virt. eigenvalues --    0.10936   0.11794   0.11898   0.12105   0.12266
  Beta virt. eigenvalues --    0.12390   0.12515   0.12699   0.13152   0.13230
  Beta virt. eigenvalues --    0.13504   0.13795   0.14044   0.14373   0.14837
  Beta virt. eigenvalues --    0.15094   0.15237   0.15358   0.15613   0.16097
  Beta virt. eigenvalues --    0.16211   0.16887   0.16959   0.17322   0.17683
  Beta virt. eigenvalues --    0.18033   0.18320   0.18721   0.18768   0.19068
  Beta virt. eigenvalues --    0.19511   0.19835   0.20028   0.20165   0.20273
  Beta virt. eigenvalues --    0.20617   0.20918   0.21198   0.21485   0.21671
  Beta virt. eigenvalues --    0.22080   0.22185   0.22519   0.22850   0.23204
  Beta virt. eigenvalues --    0.23357   0.23760   0.23951   0.24080   0.24519
  Beta virt. eigenvalues --    0.24854   0.25064   0.25182   0.25606   0.25706
  Beta virt. eigenvalues --    0.25888   0.26041   0.26441   0.26508   0.26776
  Beta virt. eigenvalues --    0.27130   0.27231   0.27438   0.27505   0.27749
  Beta virt. eigenvalues --    0.28200   0.28398   0.28663   0.28837   0.28872
  Beta virt. eigenvalues --    0.29403   0.29696   0.29777   0.29894   0.30507
  Beta virt. eigenvalues --    0.30625   0.30721   0.31038   0.31117   0.31522
  Beta virt. eigenvalues --    0.31707   0.31950   0.32134   0.32245   0.32343
  Beta virt. eigenvalues --    0.32706   0.32903   0.33170   0.33409   0.33466
  Beta virt. eigenvalues --    0.33686   0.33919   0.34180   0.34346   0.34377
  Beta virt. eigenvalues --    0.34627   0.34864   0.35275   0.35356   0.35588
  Beta virt. eigenvalues --    0.35812   0.35941   0.36069   0.36341   0.36440
  Beta virt. eigenvalues --    0.36869   0.37092   0.37311   0.37712   0.38112
  Beta virt. eigenvalues --    0.38277   0.38370   0.38684   0.38902   0.39089
  Beta virt. eigenvalues --    0.39436   0.39551   0.39984   0.40140   0.40497
  Beta virt. eigenvalues --    0.41015   0.41140   0.41589   0.41768   0.42085
  Beta virt. eigenvalues --    0.42230   0.42437   0.42651   0.42812   0.43209
  Beta virt. eigenvalues --    0.43415   0.44030   0.44209   0.44384   0.44561
  Beta virt. eigenvalues --    0.45042   0.45357   0.45496   0.46145   0.46241
  Beta virt. eigenvalues --    0.46534   0.46768   0.46837   0.47168   0.47660
  Beta virt. eigenvalues --    0.47846   0.48369   0.49048   0.49255   0.49609
  Beta virt. eigenvalues --    0.50075   0.50308   0.51524   0.51764   0.52198
  Beta virt. eigenvalues --    0.52413   0.53491   0.54076   0.55487   0.56924
  Beta virt. eigenvalues --    0.57016   0.57644   0.58161   0.59772   0.60780
  Beta virt. eigenvalues --    0.61176   0.62669   0.63124   0.64661   0.65457
  Beta virt. eigenvalues --    0.68003   0.68926   0.69459   0.69739   0.70846
  Beta virt. eigenvalues --    0.71325   0.71442   0.71734   0.71993   0.72818
  Beta virt. eigenvalues --    0.73175   0.73861   0.75343   0.75388   0.76002
  Beta virt. eigenvalues --    0.76127   0.77112   0.77543   0.77747   0.78151
  Beta virt. eigenvalues --    0.78210   0.79336   0.79931   0.80057   0.80502
  Beta virt. eigenvalues --    0.81683   0.81715   0.82426   0.82765   0.82944
  Beta virt. eigenvalues --    0.82978   0.84338   0.84542   0.84868   0.85347
  Beta virt. eigenvalues --    0.85710   0.85964   0.86822   0.87311   0.87479
  Beta virt. eigenvalues --    0.89142   0.89249   0.89410   0.90408   0.90548
  Beta virt. eigenvalues --    0.91052   0.91161   0.91929   0.92337   0.93609
  Beta virt. eigenvalues --    0.93787   0.94260   0.94658   0.95025   0.95897
  Beta virt. eigenvalues --    0.96222   0.96839   0.96972   0.97178   0.98802
  Beta virt. eigenvalues --    0.99199   1.00248   1.00414   1.00889   1.01808
  Beta virt. eigenvalues --    1.02448   1.02700   1.03259   1.03460   1.04246
  Beta virt. eigenvalues --    1.04494   1.05450   1.05817   1.06710   1.07002
  Beta virt. eigenvalues --    1.07114   1.07333   1.08115   1.08678   1.09449
  Beta virt. eigenvalues --    1.09804   1.11628   1.12398   1.12517   1.13494
  Beta virt. eigenvalues --    1.13735   1.15028   1.15534   1.15675   1.15977
  Beta virt. eigenvalues --    1.16344   1.16742   1.16763   1.17711   1.18358
  Beta virt. eigenvalues --    1.18951   1.19595   1.20542   1.21331   1.21436
  Beta virt. eigenvalues --    1.22175   1.22582   1.23159   1.24021   1.25665
  Beta virt. eigenvalues --    1.26593   1.26638   1.27736   1.29093   1.29665
  Beta virt. eigenvalues --    1.30400   1.30928   1.31371   1.31853   1.32919
  Beta virt. eigenvalues --    1.33902   1.34323   1.34718   1.35097   1.35231
  Beta virt. eigenvalues --    1.35827   1.35864   1.36638   1.37518   1.38222
  Beta virt. eigenvalues --    1.38606   1.38760   1.39222   1.39376   1.40941
  Beta virt. eigenvalues --    1.41674   1.41940   1.42568   1.43024   1.44035
  Beta virt. eigenvalues --    1.44692   1.44980   1.45357   1.45555   1.45876
  Beta virt. eigenvalues --    1.48051   1.48369   1.48567   1.48599   1.49245
  Beta virt. eigenvalues --    1.49592   1.49995   1.50197   1.50429   1.50827
  Beta virt. eigenvalues --    1.50931   1.52173   1.52382   1.52694   1.52854
  Beta virt. eigenvalues --    1.53220   1.53827   1.53996   1.54556   1.55773
  Beta virt. eigenvalues --    1.56116   1.56433   1.58250   1.58837   1.59566
  Beta virt. eigenvalues --    1.60718   1.61799   1.62278   1.64987   1.67167
  Beta virt. eigenvalues --    1.67791   1.69818   1.70010   1.70452   1.70918
  Beta virt. eigenvalues --    1.72405   1.73335   1.74573   1.74611   1.75533
  Beta virt. eigenvalues --    1.76587   1.78249   1.80582   1.84344   1.84750
  Beta virt. eigenvalues --    1.86836   1.87244   1.87475   1.88721   1.89577
  Beta virt. eigenvalues --    1.90745   1.90921   1.91114   1.91581   1.92752
  Beta virt. eigenvalues --    1.94324   1.95180   1.96075   1.96657   1.96979
  Beta virt. eigenvalues --    1.97398   1.97896   1.98310   1.99414   1.99478
  Beta virt. eigenvalues --    1.99655   1.99797   2.01069   2.01621   2.02223
  Beta virt. eigenvalues --    2.02347   2.02945   2.03532   2.04073   2.04450
  Beta virt. eigenvalues --    2.05327   2.06054   2.06071   2.06858   2.08089
  Beta virt. eigenvalues --    2.08384   2.09060   2.09187   2.09558   2.09611
  Beta virt. eigenvalues --    2.09650   2.09939   2.10032   2.10229   2.13332
  Beta virt. eigenvalues --    2.13852   2.14158   2.14723   2.15351   2.15386
  Beta virt. eigenvalues --    2.15592   2.15771   2.16267   2.17196   2.17311
  Beta virt. eigenvalues --    2.17998   2.19229   2.19636   2.19693   2.20104
  Beta virt. eigenvalues --    2.20560   2.21501   2.21690   2.21861   2.22472
  Beta virt. eigenvalues --    2.22624   2.23005   2.24993   2.25911   2.25966
  Beta virt. eigenvalues --    2.28817   2.30281   2.31107   2.31250   2.31454
  Beta virt. eigenvalues --    2.31837   2.33563   2.34432   2.34527   2.34597
  Beta virt. eigenvalues --    2.34743   2.36638   2.36934   2.37204   2.37438
  Beta virt. eigenvalues --    2.38129   2.38599   2.41531   2.41911   2.42131
  Beta virt. eigenvalues --    2.42566   2.44794   2.45658   2.46480   2.47078
  Beta virt. eigenvalues --    2.47991   2.48632   2.49100   2.49413   2.51436
  Beta virt. eigenvalues --    2.51588   2.51669   2.54631   2.54655   2.55006
  Beta virt. eigenvalues --    2.57794   2.58081   2.58580   2.59089   2.59345
  Beta virt. eigenvalues --    2.59632   2.59735   2.60732   2.61767   2.62482
  Beta virt. eigenvalues --    2.62947   2.63377   2.65375   2.65735   2.65909
[...]
 0.00000021,0.00000004,0.00000013,0.00000074,-0.00000007,0.00000105,-0.
 00000081,0.00000099,-0.00000040,-0.00000112,-0.00000073,0.00000105,-0.
 00000006,-0.00000026,-0.00000058,0.00039845,0.00007894,0.00005352,-0.0
 0005500,0.00000633,-0.00000431,-0.00004517,-0.00002305,-0.00000363,-0.
 00001202,0.00000844,-0.00000214,0.00009010,0.00001529,0.00000124,-0.00
 000191,0.00003948,0.00000486,0.00000447,0.00000337,-0.00000200,0.00000
 182,-0.00005067,0.00001790,0.00001512,0.00002829,-0.00001500,0.0000051
 3,-0.00000003,-0.00000008,-0.00017262,0.00031074,0.00025296,-0.0001815
 6,0.00007308,-0.00027222,0.00002296,-0.00002187,-0.00002097,-0.0000245
 2,0.00002962,0.00003259,0.00146990,-0.00190316,-0.00095319,0.00013514,
 0.00113275,0.00071197,-0.00003001,0.00006834,0.00009592,-0.02138643,-0
 .02531937,-0.00150280,-0.00548761,0.00341466,-0.00057624,0.00138426,0.
 00014861,-0.00033078,-0.14998245,-0.12517347,-0.00940145,0.16657344,0.
 00000132,-0.00001119,0.00000134,0.00001566,-0.00005347,0.00000234,-0.0
 0004210,-0.00000036,-0.00000113,0.00001376,0.00002014,0.00000085,0.000
 00412,0.00003062,-0.00000062,-0.00004562,0.00000641,-0.00000289,0.0000
 1183,-0.00002491,0.00000080,0.00000672,-0.00001189,0.00000133,-0.00002
 525,0.00004227,-0.00000239,-0.00001876,0.00001314,0.00000046,0.0000025
 0,0.00000056,-0.00000038,0.00000371,-0.00000296,-0.00000033,0.00002229
 ,-0.00000538,0.00000125,0.00000737,-0.00000065,0.00000054,-0.00001414,
 0.00001455,-0.00000115,0.00000155,-0.00000050,0.,0.00004964,-0.0000051
 3,0.00000279,-0.00001101,-0.00001172,0.00000007,0.00000085,-0.00000001
 ,-0.00000013,0.00000004,0.00000504,0.00000003,-0.00000120,-0.00000198,
 -0.00000010,-0.00000064,0.00000250,-0.00000020,-0.00004447,0.00001258,
 -0.00000235,0.00001043,-0.00001877,0.00000110,0.00000013,0.00000273,0.
 00000082,0.00000004,0.00000252,-0.00000095,0.00000073,0.00000053,0.000
 00044,-0.00000176,0.00000123,0.00000024,-0.00000006,-0.00000092,0.,-0.
 00000002,-0.00000059,-0.00000157,0.00000059,0.00000089,-0.00000055,0.0
 0000017,0.,0.00000012,0.00000060,-0.00000014,0.00000081,-0.00000068,0.
 00000090,-0.00000034,-0.00000086,-0.00000061,0.00000083,-0.00000003,-0
 .00000022,-0.00000044,0.00011337,-0.00005262,-0.00002822,0.00000285,0.
 00002068,0.00000338,-0.00002281,-0.00002937,0.00000161,-0.00000421,0.0
 0000518,-0.00000035,0.00006016,0.00000487,0.00000014,-0.00001258,0.000
 01822,0.00000237,0.00000373,0.00000174,-0.00000035,-0.00000040,-0.0000
 1144,0.00000068,0.00000514,0.00000948,-0.00000428,0.00000396,-0.000012
 54,-0.00000156,-0.00000090,-0.00001367,-0.00005243,0.00000274,0.000309
 82,0.00023846,-0.00001042,-0.00001652,-0.00000209,-0.00010692,0.000014
 47,0.00002701,0.00033599,0.00116783,0.00031805,-0.00043407,0.00015508,
 0.00028869,-0.00004427,-0.00010670,-0.00004324,0.00775137,0.00927214,0
 .00034782,0.00277764,0.00044520,-0.00021751,-0.00072925,0.00083950,-0.
 00023815,-0.12580003,-0.19972937,-0.01143894,0.13752591,0.21545956,0.0
 0000228,-0.00000689,-0.00000090,0.00000535,-0.00002312,0.00000147,-0.0
 0002040,0.00000183,-0.00000036,0.00000561,0.00000340,0.00000066,-0.000
 00085,0.00001242,-0.00000071,-0.00002048,0.00000586,-0.00000133,-0.000
 00233,0.00000162,0.00000021,0.00000668,-0.00000672,0.00000027,-0.00001
 047,0.00001774,-0.00000222,-0.00000067,-0.00000551,0.00000028,0.000000
 65,0.00000056,0.00000020,0.00000184,-0.00000106,0.00000135,0.00000886,
 -0.00000240,0.00000051,0.00000351,-0.00000040,0.00000005,-0.00000634,0
 .00000633,-0.00000073,0.00000061,-0.00000022,0.00000024,0.00002181,-0.
 00000269,0.00000122,-0.00000470,-0.00000480,-0.00000023,0.00000043,-0.
 00000026,0.00000011,-0.00000031,0.00000229,-0.00000017,-0.00000064,-0.
 00000083,0.00000007,-0.00000027,0.00000101,0.00000008,-0.00001840,0.00
 000494,-0.00000116,0.00000411,-0.00000755,0.00000082,0.00000004,0.0000
 0106,0.00000021,0.00000006,0.00000109,-0.00000049,0.00000032,0.0000003
 1,0.00000025,-0.00000069,0.00000046,0.00000012,-0.00000007,-0.00000042
 ,-0.00000007,-0.00000002,-0.00000016,-0.00000052,0.00000025,0.00000035
 ,-0.00000020,0.00000005,-0.00000007,-0.00000005,0.00000024,0.,0.000000
 35,-0.00000025,0.00000031,-0.00000010,-0.00000032,-0.00000018,0.000000
 29,-0.00000005,-0.00000014,-0.00000024,0.00011032,-0.00003778,0.000007
 59,-0.00001246,0.00001031,-0.00000536,-0.00000832,-0.00001419,-0.00000
 048,-0.00000323,0.00000252,0.00000085,0.00002867,0.00000241,-0.0000016
 0,-0.00000823,0.00000199,0.00000029,-0.00000074,0.00000194,-0.00000037
 ,-0.00001571,0.00000697,0.00000060,0.00000215,0.00000220,-0.00000367,0
 .00000224,-0.00000738,0.00000284,-0.00018488,0.00000746,-0.00000845,0.
 00007244,-0.00007443,-0.00003576,-0.00003667,0.00002940,-0.00003293,-0
 .00000384,-0.00000196,-0.00000736,0.00057081,0.00082008,0.00017358,0.0
 0004149,-0.00011403,0.00024448,0.00005884,0.00010375,-0.00000679,-0.00
 207099,-0.00239868,-0.00071928,-0.00052566,0.00032523,0.00079011,-0.00
 008965,-0.00048908,-0.00005548,-0.00943018,-0.01152916,-0.04939567,0.0
 1136804,0.01284105,0.04763944,0.00001025,-0.00002805,-0.00000180,0.000
 01499,-0.00007173,0.00000459,-0.00007037,0.00001257,-0.00000392,0.0000
 1570,-0.00000237,0.00000103,-0.00001088,0.00003555,-0.00000237,-0.0000
 6814,0.00002817,-0.00000409,-0.00002753,0.00003943,-0.00000134,0.00003
 126,-0.00002672,0.00000075,-0.00003293,0.00005362,-0.00000526,0.000018
 02,-0.00004782,-0.00000279,0.00000102,0.00000255,0.00000148,0.00000746
 ,-0.00000274,0.00000276,0.00002735,-0.00000814,0.00000168,0.00001202,-
 0.00000151,0.00000026,-0.00002148,0.00002078,-0.00000205,0.00000205,-0
 .00000058,0.00000051,0.00007196,-0.00001059,0.00000393,-0.00001469,-0.
 00001396,-0.00000071,0.00000163,-0.00000166,0.00000055,-0.00000193,0.0
 0000774,-0.00000070,-0.00000246,-0.00000273,0.00000022,-0.00000071,0.0
 0000307,0.00000011,-0.00005839,0.00001463,-0.00000353,0.00001258,-0.00
 002304,0.00000212,0.00000012,0.00000331,0.00000066,0.00000011,0.000003
 34,-0.00000129,0.00000111,0.00000125,0.00000085,-0.00000206,0.00000120
 ,0.00000036,-0.00000027,-0.00000126,-0.00000026,-0.00000017,-0.0000004
 3,-0.00000176,0.00000087,0.00000095,-0.00000058,0.00000014,-0.00000013
 ,-0.00000014,0.00000069,0.00000010,0.00000109,-0.00000069,0.00000074,-
 0.00000030,-0.00000107,-0.00000059,0.00000099,-0.00000016,-0.00000035,
 -0.00000076,0.00040086,-0.00010557,0.00002470,-0.00006975,0.00008200,-
 0.00002288,-0.00001107,-0.00007103,-0.00000061,-0.00000969,0.00000822,
 0.00000065,0.00009568,-0.00000228,0.00000289,-0.00005418,0.00000550,-0
 .00000759,-0.00000610,0.00000745,0.00000228,-0.00004189,0.00004184,-0.
 00001558,0.00000779,-0.00000386,0.00001184,0.00000664,-0.00006067,0.00
 001666,-0.00039500,-0.00018109,-0.00011348,0.00049130,0.00146089,0.001
 94459,0.00002625,-0.00000458,-0.00006890,-0.00072109,0.00020357,-0.000
 01817,-0.00635142,0.00114059,-0.00274982,0.00017670,0.00026169,-0.0001
 6524,0.00005149,-0.00032128,-0.00010524,-0.00660709,0.01718911,0.02685
 129,0.00100623,-0.00081078,0.00026722,0.00130140,-0.00013466,-0.000422
 39,-0.06135173,0.03325805,0.04949748,0.00518236,-0.01050240,-0.0176273
 8,0.06696689,-0.00000740,0.00002366,0.00000170,-0.00001693,0.00007221,
 -0.00000456,0.00006618,-0.00000848,0.00000224,-0.00001715,-0.00000890,
 -0.00000107,0.00000462,-0.00003836,0.00000256,0.00006689,-0.00002125,0
 .00000399,0.00001044,-0.00001077,-0.00000011,-0.00002297,0.00002310,-0
 .00000056,0.00003345,-0.00005488,0.00000579,-0.00000064,0.00002264,0.0
 0000236,-0.00000195,-0.00000192,-0.00000124,-0.00000646,0.00000291,-0.
 00000286,-0.00002856,0.00000784,-0.00000168,-0.00001148,0.00000126,-0.
 00000023,0.00002094,-0.00002074,0.00000216,-0.00000208,0.00000057,-0.0
 0000060,-0.00007130,0.00000934,-0.00000390,0.00001504,0.00001505,0.000
 00074,-0.00000149,0.00000109,-0.00000047,0.00000116,-0.00000741,0.0000
 0061,0.00000220,0.00000276,-0.00000024,0.00000076,-0.00000322,-0.00000
 016,0.00005961,-0.00001555,0.00000366,-0.00001319,0.00002403,-0.000002
 36,-0.00000012,-0.00000340,-0.00000068,-0.00000013,-0.00000347,0.00000
 141,-0.00000108,-0.00000114,-0.00000086,0.00000219,-0.00000141,-0.0000
 0037,0.00000026,0.00000135,0.00000026,0.00000010,0.00000051,0.00000179
 ,-0.00000084,-0.00000109,0.00000061,-0.00000014,0.00000018,0.00000015,
 -0.00000075,-0.00000002,-0.00000115,0.00000078,-0.00000092,0.00000033,
 0.00000106,0.00000062,-0.00000099,0.00000015,0.00000041,0.00000077,-0.
 00031442,0.00010816,-0.00001873,0.00003993,-0.00004501,0.00001199,0.00
 002551,0.00005027,0.00000459,0.00000888,-0.00000780,-0.00000125,-0.000
 09429,-0.00000376,-0.00000253,0.00003593,-0.00001012,0.00000341,0.0000
 0232,-0.00000596,-0.00000133,0.00003975,-0.00001847,0.00000837,-0.0000
 0868,-0.00000505,-0.00000198,-0.00000971,0.00003113,-0.00001044,0.0005
 6890,0.00003834,0.00004069,-0.00038530,-0.00006115,-0.00100007,-0.0000
 3312,0.00000609,0.00004882,0.00028221,-0.00010217,0.00000824,0.0027040
 4,-0.00004711,0.00142657,-0.00011578,0.00044894,0.00037341,-0.00000492
 ,0.00007578,-0.00028626,0.00124246,-0.00623975,-0.00804461,-0.00007827
 ,0.00065519,0.00035436,-0.00026955,-0.00023448,0.00012032,0.03377877,-
 0.12570956,-0.11463219,0.00647686,-0.01358307,-0.02033209,-0.03894383,
 0.13328050,-0.00000813,0.00002631,0.00000009,-0.00001577,0.00006259,-0
 .00000413,0.00006378,-0.00001428,0.00000370,-0.00001403,-0.00000032,-0
 .00000079,0.00000784,-0.00003115,0.00000219,0.00006363,-0.00002566,0.0
 0000409,0.00001913,-0.00002777,0.00000139,-0.00002625,0.00002516,-0.00
 000076,0.00003037,-0.00004681,0.00000450,-0.00000989,0.00003728,0.0000
 0229,-0.00000141,-0.00000258,-0.00000132,-0.00000670,0.00000226,-0.000
 00177,-0.00002817,0.00000799,-0.00000177,-0.00001147,0.00000137,-0.000
 00024,0.00002079,-0.00002003,0.00000200,-0.00000220,0.00000038,-0.0000
 0046,-0.00006931,0.00000996,-0.00000351,0.00001405,0.00001369,0.000000
 51,-0.00000168,0.00000145,-0.00000051,0.00000194,-0.00000767,0.0000007
 2,0.00000242,0.00000279,-0.00000023,0.00000056,-0.00000303,-0.00000010
 ,0.00005842,-0.00001445,0.00000353,-0.00001287,0.00002274,-0.00000213,
 -0.00000009,-0.00000325,-0.00000053,-0.00000004,-0.00000329,0.00000117
 ,-0.00000109,-0.00000126,-0.00000089,0.00000206,-0.00000125,-0.0000003
 9,0.00000029,0.00000134,0.00000033,0.00000011,0.00000035,0.00000175,-0
 .00000089,-0.00000098,0.00000056,-0.00000010,0.00000022,0.00000021,-0.
 00000074,-0.00000009,-0.00000116,0.00000071,-0.00000081,0.00000031,0.0
 0000111,0.00000061,-0.00000109,0.00000018,0.00000040,0.00000087,-0.000
 32708,0.00007324,-0.00001100,0.00004391,-0.00004122,0.00000594,0.00002
 060,0.00004802,0.00000526,0.00000719,-0.00000587,-0.00000050,-0.000093
 59,-0.00000253,-0.00001062,0.00003456,-0.00001124,0.00000624,0.0000026
 8,-0.00000657,-0.00000122,0.00003189,-0.00002180,0.00000342,-0.0000083
 7,-0.00000512,-0.00000678,-0.00000396,0.00002931,-0.00000076,0.0004720
 7,0.00006624,0.00001631,-0.00065338,-0.00019276,0.00016807,0.00012406,
 -0.00001925,0.00000857,0.00002788,0.00001754,-0.00000083,0.00023468,0.
 00020686,0.00081847,-0.00010336,0.00005849,-0.00004906,-0.00025792,0.0
 0005895,0.00046116,-0.00168623,0.00318061,0.00306324,0.00059033,0.0001
 1794,0.00008302,0.00042476,-0.00016416,0.00067271,0.05035335,-0.114888
 80,-0.21585867,-0.00038583,0.00005238,-0.00098637,-0.05471617,0.126545
 42,0.23219130,0.00000203,-0.00000371,0.00000201,0.00000051,-0.00000132
 ,-0.00000083,-0.00000496,0.00000370,-0.00000053,-0.00000056,-0.0000069
 0,0.00000123,-0.00000358,-0.00000108,0.00000033,-0.00000308,0.00000520
 ,-0.00000051,-0.00000998,0.00001697,-0.00000145,0.00000566,-0.00000331
 ,0.00000105,-0.00000099,0.00000052,0.00000093,0.00001010,-0.00001509,0
 .00000358,-0.00000032,0.00000046,-0.00000062,0.00000090,0.00000007,-0.
 00000171,0.00000144,-0.00000061,0.,0.00000079,-0.00000026,0.00000030,-
 0.00000126,0.00000103,0.00000001,0.00000019,0.,-0.00000019,0.00000386,
 -0.00000112,0.00000037,-0.00000056,-0.00000026,0.,0.00000019,-0.000000
 34,-0.00000015,-0.00000055,0.00000072,0.00000016,-0.00000026,-0.000000
 18,-0.00000010,0.00000002,0.00000012,-0.00000011,-0.00000323,0.0000005
 2,-0.00000006,0.00000064,-0.00000107,-0.00000016,0.,0.00000019,0.00000
 007,-0.00000004,0.00000013,0.00000005,0.00000006,0.00000015,0.00000003
 ,-0.00000008,0.,0.00000002,0.,-0.00000003,0.,-0.00000004,0.00000002,-0
 .00000015,0.00000007,-0.00000001,-0.00000004,0.,0.00000004,0.00000002,
 0.00000003,0.00000003,0.00000006,0.,-0.00000002,-0.00000002,-0.0000001
 0,-0.00000004,0.00000009,0.,0.,-0.00000005,0.00003456,-0.00001814,0.00
 000830,0.00000481,-0.00000280,0.00001071,0.00000854,-0.00000823,0.0000
 0902,0.00000092,-0.00000087,-0.00000143,0.00001031,-0.00000353,-0.0000
 0668,-0.00000804,-0.00000477,0.00000384,-0.00000210,0.00000115,-0.0000
 0145,-0.00000102,0.00002762,0.00000464,-0.00000393,-0.00000743,-0.0000
 0862,0.00000311,-0.00000442,-0.00000841,-0.00004956,-0.00007940,0.0001
 0194,-0.00014231,-0.00007784,-0.00011475,0.00018379,-0.00018014,0.0001
 6804,0.00000155,-0.00005782,0.00011489,0.00149686,-0.00050433,-0.00147
 882,-0.00003696,0.00000171,0.00015923,-0.00005265,-0.00001966,0.000939
 14,-0.00387895,0.01926786,-0.02692533,0.00136229,-0.00066388,-0.000078
 31,-0.00619205,0.00253697,-0.00016403,-0.04995727,0.01527779,-0.022672
 91,0.00217313,-0.01086207,0.01778751,-0.00000995,-0.00502882,0.0057914
 1,0.05505803,-0.00000060,0.00000495,-0.00000354,-0.00000449,0.00001344
 ,0.00000062,0.00001335,-0.00000263,0.00000033,-0.00000328,-0.00000318,
 -0.00000202,0.00000009,-0.00000759,-0.00000006,0.00001399,-0.00000399,
 0.00000119,-0.00000036,0.00000108,0.00000147,-0.00000344,0.00000490,-0
 .00000193,0.00000715,-0.00001035,-0.00000147,0.00000260,0.00000168,-0.
 00000459,-0.00000065,-0.00000035,0.00000136,-0.00000153,0.00000058,0.0
 0000293,-0.00000693,0.00000181,-0.00000029,-0.00000246,0.00000017,-0.0
 0000069,0.00000469,-0.00000462,0.,-0.00000060,0.00000008,0.00000045,-0
 .00001569,0.00000202,-0.00000103,0.00000333,0.00000340,-0.00000039,-0.
 00000039,0.00000018,0.00000043,0.00000024,-0.00000166,-0.00000042,0.00
 000047,0.00000067,0.00000030,0.00000011,-0.00000073,0.00000037,0.00001
 399,-0.00000359,0.00000037,-0.00000326,0.00000556,0.00000034,-0.000000
 05,-0.00000094,-0.00000037,0.00000012,-0.00000063,0.00000001,-0.000000
 23,-0.00000024,0.,0.00000050,-0.00000025,-0.00000006,-0.00000003,0.000
 00018,-0.00000012,0.00000004,0.00000018,0.00000068,-0.00000023,-0.0000
 0016,0.00000023,-0.00000007,-0.00000016,-0.00000018,-0.00000018,0.0000
 0003,-0.00000019,0.00000017,-0.00000020,0.00000015,0.00000041,0.000000
 28,-0.00000041,-0.00000002,-0.00000004,0.00000008,-0.00004927,-0.00000
 361,-0.00000386,0.00000201,-0.00000083,-0.00001151,0.00000591,0.000005
 49,-0.00000352,0.00000057,-0.00000081,0.00000249,-0.00002165,-0.000001
 47,0.00000426,0.00000254,-0.00000684,-0.00000519,-0.00000126,-0.000000
 67,0.00000190,-0.00000176,0.00000468,-0.00000924,-0.00000231,-0.000003
 59,0.00001066,-0.00000211,-0.00000140,0.00000674,0.00005344,-0.0000312
 1,-0.00009364,0.00012417,0.00014443,-0.00026231,-0.00020098,0.00011185
 ,-0.00007317,0.00006553,-0.00001181,-0.00005429,-0.00071484,0.00009894
 ,0.00110039,0.00001269,-0.00008627,0.00006907,0.00034328,0.00003592,-0
 .00072086,0.00124293,-0.00650855,0.00850569,-0.00007265,0.00067697,-0.
 00055911,0.00238616,0.00044287,-0.00026283,0.01576869,-0.13198469,0.11
 949157,0.00312704,-0.01417368,0.02084534,-0.00250148,0.01137247,-0.015
 10789,-0.01958344,0.13992192,0.00000623,-0.00001872,0.00000411,0.00000
 955,-0.00003536,0.00000069,-0.00004124,0.00001257,-0.00000392,0.000007
 09,-0.00000576,0.00000177,-0.00000745,0.00001603,0.00000015,-0.0000394
 5,0.00001966,-0.00000323,-0.00001927,0.00003077,-0.00000368,0.00001974
 ,-0.00001776,0.00000310,-0.00001816,0.00002590,0.00000040,0.00001350,-
 0.00003485,0.00000607,0.00000067,0.00000201,-0.00000130,0.00000469,-0.
 00000114,-0.00000243,0.00001834,-0.00000547,0.00000113,0.00000747,-0.0
 0000098,0.00000083,-0.00001350,0.00001268,-0.00000067,0.00000154,-0.00
 000018,-0.00000037,0.00004395,-0.00000687,0.00000225,-0.00000858,-0.00
 000809,0.00000053,0.00000123,-0.00000119,-0.00000034,-0.00000190,0.000
 00530,0.00000013,-0.00000169,-0.00000185,-0.00000032,-0.00000023,0.000
 00188,-0.00000040,-0.00003772,0.00000890,-0.00000167,0.00000837,-0.000
 01422,0.00000030,0.00000008,0.00000222,0.00000056,-0.00000016,0.000001
 89,-0.00000034,0.00000072,0.00000081,0.00000036,-0.00000126,0.00000063
 ,0.00000024,-0.00000010,-0.00000070,-0.00000003,-0.00000010,-0.0000001
 9,-0.00000139,0.00000064,0.00000046,-0.00000044,0.00000008,0.00000009,
 0.00000006,0.00000045,0.00000007,0.00000067,-0.00000041,0.00000043,-0.
 00000027,-0.00000091,-0.00000052,0.00000092,-0.00000007,-0.00000011,-0
 .00000050,0.00019966,-0.00005216,0.00001555,-0.00003079,0.00001958,-0.
 00000454,-0.00000587,-0.00003185,0.00000528,-0.00000330,0.00000246,-0.
 00000250,0.00006187,-0.00000130,0.00000406,-0.00002605,0.00000370,0.00
 000196,-0.00000291,0.00000487,-0.00000223,-0.00002031,0.00003115,0.000
 00773,0.00000293,-0.00000111,-0.00000707,0.00000442,-0.00001858,-0.000
 00517,-0.00032211,-0.00003096,0.00003342,0.00018191,-0.00004986,0.0002
 7122,0.00014120,-0.00007920,-0.00009876,-0.00009716,0.00001703,0.00001
 957,0.00035329,-0.00071738,0.00089582,-0.00001196,0.00000401,-0.000025
 04,-0.00017942,0.00040713,0.00051206,-0.00061901,0.00097572,-0.0022097
 5,-0.00036973,-0.00020643,0.00006936,-0.00065204,-0.00044690,0.0012280
 0,-0.02327125,0.11976283,-0.21925308,0.00093256,-0.00209515,0.00240046
 ,-0.00257648,0.01537826,-0.02058630,0.02635839,-0.13286419,0.23672699|
 |-0.00000122,0.00000098,0.00002148,-0.00001094,-0.00003454,-0.00003209
 ,0.00003595,-0.00001194,0.00000033,-0.00000334,-0.00001229,0.00000426,
 0.00000136,0.00001105,0.00000272,-0.00003633,0.00001138,-0.00000161,0.
 00001033,0.00003284,-0.00003309,0.00000543,-0.00000540,0.00002300,-0.0
 0000382,0.00001241,0.00000729,0.00000083,-0.00001199,0.00001557,-0.000
 00147,0.00000478,-0.00000109,0.00000144,-0.00000454,-0.00000978,-0.000
 03745,0.00000216,0.00000423,0.00003128,-0.00001275,-0.00000091,-0.0000
 1774,0.00000901,-0.00000195,-0.00000959,0.00000470,-0.00000263,0.00003
 000,-0.00001423,0.00000492,-0.00001787,-0.00000180,0.00000029,-0.00000
 478,-0.00000235,0.00000391,0.00003073,0.00001307,0.00000445,-0.0000052
 9,-0.00000708,0.00000291,-0.00000118,0.00000724,-0.00000221,0.00000588
 ,-0.00001286,-0.00000961,-0.00000613,0.00001559,0.00000757,0.00000586,
 -0.00000109,-0.00000454,0.00000162,-0.00000449,0.00000096,0.00000683,-
 0.00000348,0.00000094,-0.00000295,-0.00000265,-0.00000273,-0.00000299,
 -0.00000319,-0.00000343,-0.00000087,0.00000034,-0.00000254,0.00000020,
 0.00000246,0.00000119,-0.00000059,0.00000133,0.00000165,-0.00000140,0.
 00000144,0.00000334,-0.00000045,0.00000102,-0.00000072,0.00000049,0.00
 000153,0.00000040,0.00000031,-0.00000094,-0.00000012,0.00003840,0.0000
 0611,-0.00000534,-0.00003234,-0.00001457,-0.00000088,0.00002099,0.0000
 1304,-0.00000161,0.00000576,0.00000043,-0.00000130,-0.00003153,0.00000
 834,0.00000103,0.00001738,0.00000105,0.00000217,0.00000853,-0.00000545
 ,0.00000214,-0.00002994,0.00000931,-0.00000256,0.00000201,-0.00000732,
 0.00000259,0.00000336,0.00000598,-0.00000193,-0.00001028,-0.00001035,0
 .00001203,0.00001146,0.00001471,-0.00001110,-0.00000613,-0.00000107,0.
 00000147,-0.00000199,-0.00000071,-0.00000371,-0.00000600,0.00000098,-0
 .00000176,0.00000343,-0.00000174,-0.00000001,0.00000195,-0.00000004,0.
 00000324,0.00000034,-0.00000038,0.00000241,0.00000039,0.00000047,0.000
 00080,0.00000064,-0.00000254,-0.00000220,0.00000174,-0.00000073,-0.000
 00216,0.00000050,0.00000009,-0.00000005,-0.00000032,-0.00000145,0.0000
 0189,-0.00000049,0.00000008,0.00000249|||@


 ... THE UNIVERSE IS NOT ONLY QUEERER THAN WE SUPPOSE,
 BUT QUEERER THAN WE CAN SUPPOSE ... 

                                   -- J. B. S. HALDANE
 Job cpu time:  0 days 15 hours 16 minutes  6.0 seconds.
 File lengths (MBytes):  RWF=   5577 Int=      0 D2E=      0 Chk=     48 Scr=      1
 Normal termination of Gaussian 09 at Wed Jul 26 03:57:19 2023.
